# Selection   : all
# Cells       : 400
# Volume      : 1.000000e+00
# Time        	min(p)
0             	0.000000e+00
0.01          	-5.971512e-01
0.02          	-7.293678e-01
0.03          	-7.291933e-01
0.04          	-7.056371e-01
0.05          	-6.818692e-01
0.06          	-6.616879e-01
0.07          	-6.446230e-01
0.08          	-6.296574e-01
0.09          	-6.161113e-01
0.1           	-6.035685e-01
0.11          	-5.919433e-01
0.12          	-5.810793e-01
0.13          	-5.709011e-01
0.14          	-5.614067e-01
0.15          	-5.525555e-01
0.16          	-5.443069e-01
0.17          	-5.366285e-01
0.18          	-5.294858e-01
0.19          	-5.228473e-01
0.2           	-5.167483e-01
0.21          	-5.108193e-01
0.22          	-5.054010e-01
0.23          	-5.004009e-01
0.24          	-4.957705e-01
0.25          	-4.914039e-01
0.26          	-4.872962e-01
0.27          	-4.834467e-01
0.28          	-4.798395e-01
0.29          	-4.764572e-01
0.3           	-4.732775e-01
0.31          	-4.702855e-01
0.32          	-4.674671e-01
0.33          	-4.648098e-01
0.34          	-4.623011e-01
0.35          	-4.599060e-01
0.36          	-4.576525e-01
0.37          	-4.555206e-01
0.38          	-4.534955e-01
0.39          	-4.515671e-01
0.4           	-4.497264e-01
0.41          	-4.479641e-01
0.42          	-4.463956e-01
0.43          	-4.451443e-01
0.44          	-4.436894e-01
0.45          	-4.421985e-01
0.46          	-4.408948e-01
0.47          	-4.399837e-01
0.48          	-4.386064e-01
0.49          	-4.372682e-01
0.5           	-4.360581e-01
0.51          	-4.349227e-01
0.52          	-4.338573e-01
0.53          	-4.328251e-01
0.54          	-4.318631e-01
0.55          	-4.309280e-01
0.56          	-4.300224e-01
0.57          	-4.291480e-01
0.58          	-4.283058e-01
0.59          	-4.274963e-01
0.6           	-4.267146e-01
0.61          	-4.259572e-01
0.62          	-4.252016e-01
0.63          	-4.245474e-01
0.64          	-4.238758e-01
0.65          	-4.232189e-01
0.66          	-4.225832e-01
0.67          	-4.219689e-01
0.68          	-4.213753e-01
0.69          	-4.207993e-01
0.7           	-4.202483e-01
0.71          	-4.197161e-01
0.72          	-4.191872e-01
0.73          	-4.186787e-01
0.74          	-4.181902e-01
0.75          	-4.177180e-01
0.76          	-4.172593e-01
0.77          	-4.168139e-01
0.78          	-4.163871e-01
0.79          	-4.159771e-01
0.8           	-4.155326e-01
0.81          	-4.151322e-01
0.82          	-4.147490e-01
0.83          	-4.143767e-01
0.84          	-4.140126e-01
0.85          	-4.136623e-01
0.86          	-4.133192e-01
0.87          	-4.129872e-01
0.88          	-4.126614e-01
0.89          	-4.123262e-01
0.9           	-4.120082e-01
0.91          	-4.117104e-01
0.92          	-4.114270e-01
0.93          	-4.111439e-01
0.94          	-4.108658e-01
0.95          	-4.105940e-01
0.96          	-4.103289e-01
0.97          	-4.100706e-01
0.98          	-4.098189e-01
0.99          	-4.095734e-01
1             	-4.093342e-01
1.01          	-4.091009e-01
1.02          	-4.088733e-01
1.03          	-4.086511e-01
1.04          	-4.084337e-01
1.05          	-4.082247e-01
1.06          	-4.080190e-01
1.07          	-4.078179e-01
1.08          	-4.076218e-01
1.09          	-4.074308e-01
1.1           	-4.072452e-01
1.11          	-4.070674e-01
1.12          	-4.068892e-01
1.13          	-4.066976e-01
1.14          	-4.065254e-01
1.15          	-4.063609e-01
1.16          	-4.062004e-01
1.17          	-4.060428e-01
1.18          	-4.058850e-01
1.19          	-4.057376e-01
1.2           	-4.055894e-01
1.21          	-4.054422e-01
1.22          	-4.052898e-01
1.23          	-4.051448e-01
1.24          	-4.050390e-01
1.25          	-4.049070e-01
1.26          	-4.047775e-01
1.27          	-4.046487e-01
1.28          	-4.045212e-01
1.29          	-4.043886e-01
1.3           	-4.042772e-01
1.31          	-4.041772e-01
1.32          	-4.040678e-01
1.33          	-4.039537e-01
1.34          	-4.038344e-01
1.35          	-4.037299e-01
1.36          	-4.036274e-01
1.37          	-4.035267e-01
1.38          	-4.034278e-01
1.39          	-4.033309e-01
1.4           	-4.032360e-01
1.41          	-4.031431e-01
1.42          	-4.030521e-01
1.43          	-4.029625e-01
1.44          	-4.028736e-01
1.45          	-4.027754e-01
1.46          	-4.027126e-01
1.47          	-4.026378e-01
1.48          	-4.025587e-01
1.49          	-4.024798e-01
1.5           	-4.024006e-01
1.51          	-4.023300e-01
1.52          	-4.022617e-01
1.53          	-4.021843e-01
1.54          	-4.021023e-01
1.55          	-4.020271e-01
1.56          	-4.019692e-01
1.57          	-4.019067e-01
1.58          	-4.018438e-01
1.59          	-4.017816e-01
1.6           	-4.017206e-01
1.61          	-4.016608e-01
1.62          	-4.016022e-01
1.63          	-4.015450e-01
1.64          	-4.014890e-01
1.65          	-4.014343e-01
1.66          	-4.013807e-01
1.67          	-4.013283e-01
1.68          	-4.012771e-01
1.69          	-4.012270e-01
1.7           	-4.011779e-01
1.71          	-4.011299e-01
1.72          	-4.010830e-01
1.73          	-4.010371e-01
1.74          	-4.009922e-01
1.75          	-4.009483e-01
1.76          	-4.009053e-01
1.77          	-4.008632e-01
1.78          	-4.008220e-01
1.79          	-4.007823e-01
1.8           	-4.007429e-01
1.81          	-4.007047e-01
1.82          	-4.006675e-01
1.83          	-4.006308e-01
1.84          	-4.005940e-01
1.85          	-4.005592e-01
1.86          	-4.005265e-01
1.87          	-4.004933e-01
1.88          	-4.004606e-01
1.89          	-4.004285e-01
1.9           	-4.003972e-01
1.91          	-4.003666e-01
1.92          	-4.003368e-01
1.93          	-4.003077e-01
1.94          	-4.002793e-01
1.95          	-4.002516e-01
1.96          	-4.002246e-01
1.97          	-4.001982e-01
1.98          	-4.001725e-01
1.99          	-4.001473e-01
2             	-4.001228e-01
2.01          	-4.000989e-01
2.02          	-4.000756e-01
2.03          	-4.000529e-01
2.04          	-4.000307e-01
2.05          	-4.000091e-01
2.06          	-3.999880e-01
2.07          	-3.999674e-01
2.08          	-3.999474e-01
2.09          	-3.999279e-01
2.1           	-3.999090e-01
2.11          	-3.998905e-01
2.12          	-3.998725e-01
2.13          	-3.998549e-01
2.14          	-3.998379e-01
2.15          	-3.998213e-01
2.16          	-3.998052e-01
2.17          	-3.997895e-01
2.18          	-3.997742e-01
2.19          	-3.997594e-01
2.2           	-3.997450e-01
2.21          	-3.997310e-01
2.22          	-3.997174e-01
2.23          	-3.997042e-01
2.24          	-3.996914e-01
2.25          	-3.996790e-01
2.26          	-3.996669e-01
2.27          	-3.996552e-01
2.28          	-3.996437e-01
2.29          	-3.996325e-01
2.3           	-3.996206e-01
2.31          	-3.996096e-01
2.32          	-3.996047e-01
2.33          	-3.995952e-01
2.34          	-3.995857e-01
2.35          	-3.995764e-01
2.36          	-3.995675e-01
2.37          	-3.995590e-01
2.38          	-3.995509e-01
2.39          	-3.995432e-01
2.4           	-3.995358e-01
2.41          	-3.995287e-01
2.42          	-3.995217e-01
2.43          	-3.995148e-01
2.44          	-3.995012e-01
2.45          	-3.995044e-01
2.46          	-3.994996e-01
2.47          	-3.994941e-01
2.48          	-3.994885e-01
2.49          	-3.994832e-01
2.5           	-3.994782e-01
2.51          	-3.994737e-01
2.52          	-3.994694e-01
2.53          	-3.994654e-01
2.54          	-3.994613e-01
2.55          	-3.994585e-01
2.56          	-3.994546e-01
2.57          	-3.994521e-01
2.58          	-3.994488e-01
2.59          	-3.994466e-01
2.6           	-3.994439e-01
2.61          	-3.994420e-01
2.62          	-3.994397e-01
2.63          	-3.994382e-01
2.64          	-3.994364e-01
2.65          	-3.994352e-01
2.66          	-3.994338e-01
2.67          	-3.994330e-01
2.68          	-3.994319e-01
2.69          	-3.994315e-01
2.7           	-3.994307e-01
2.71          	-3.994306e-01
2.72          	-3.994302e-01
2.73          	-3.994305e-01
2.74          	-3.994304e-01
2.75          	-3.994310e-01
2.76          	-3.994311e-01
2.77          	-3.994321e-01
2.78          	-3.994325e-01
2.79          	-3.994338e-01
2.8           	-3.994345e-01
2.81          	-3.994361e-01
2.82          	-3.994370e-01
2.83          	-3.994388e-01
2.84          	-3.994400e-01
2.85          	-3.994421e-01
2.86          	-3.994435e-01
2.87          	-3.994458e-01
2.88          	-3.994473e-01
2.89          	-3.994498e-01
2.9           	-3.994514e-01
2.91          	-3.994539e-01
2.92          	-3.994549e-01
2.93          	-3.994564e-01
2.94          	-3.994541e-01
2.95          	-3.994569e-01
2.96          	-3.994768e-01
2.97          	-3.994810e-01
2.98          	-3.994816e-01
2.99          	-3.994824e-01
3             	-3.994837e-01
3.01          	-3.994850e-01
3.02          	-3.994864e-01
3.03          	-3.994788e-01
3.04          	-3.994962e-01
3.05          	-3.995080e-01
3.06          	-3.995091e-01
3.07          	-3.995039e-01
3.08          	-3.995183e-01
3.09          	-3.995315e-01
3.1           	-3.995342e-01
3.11          	-3.995363e-01
3.12          	-3.995387e-01
3.13          	-3.995422e-01
3.14          	-3.995464e-01
3.15          	-3.995506e-01
3.16          	-3.995554e-01
3.17          	-3.995601e-01
3.18          	-3.995649e-01
3.19          	-3.995701e-01
3.2           	-3.995752e-01
3.21          	-3.995804e-01
3.22          	-3.995855e-01
3.23          	-3.995909e-01
3.24          	-3.995961e-01
3.25          	-3.996015e-01
3.26          	-3.996066e-01
3.27          	-3.996122e-01
3.28          	-3.996168e-01
3.29          	-3.996217e-01
3.3           	-3.996222e-01
3.31          	-3.996246e-01
3.32          	-3.996480e-01
3.33          	-3.996549e-01
3.34          	-3.996597e-01
3.35          	-3.996642e-01
3.36          	-3.996689e-01
3.37          	-3.996750e-01
3.38          	-3.996803e-01
3.39          	-3.996862e-01
3.4           	-3.996926e-01
3.41          	-3.996988e-01
3.42          	-3.997052e-01
3.43          	-3.997116e-01
3.44          	-3.997180e-01
3.45          	-3.997246e-01
3.46          	-3.997311e-01
3.47          	-3.997377e-01
3.48          	-3.997444e-01
3.49          	-3.997510e-01
3.5           	-3.997577e-01
3.51          	-3.997645e-01
3.52          	-3.997712e-01
3.53          	-3.997780e-01
3.54          	-3.997848e-01
3.55          	-3.997917e-01
3.56          	-3.997985e-01
3.57          	-3.998052e-01
3.58          	-3.998119e-01
3.59          	-3.998185e-01
3.6           	-3.998228e-01
3.61          	-3.998299e-01
3.62          	-3.998434e-01
3.63          	-3.998544e-01
3.64          	-3.998611e-01
3.65          	-3.998677e-01
3.66          	-3.998710e-01
3.67          	-3.998770e-01
3.68          	-3.998838e-01
3.69          	-3.998910e-01
3.7           	-3.998983e-01
3.71          	-3.999055e-01
3.72          	-3.999128e-01
3.73          	-3.999200e-01
3.74          	-3.999273e-01
3.75          	-3.999346e-01
3.76          	-3.999417e-01
3.77          	-3.999455e-01
3.78          	-3.999552e-01
3.79          	-3.999621e-01
3.8           	-3.999688e-01
3.81          	-3.999749e-01
3.82          	-3.999761e-01
3.83          	-3.999900e-01
3.84          	-4.000058e-01
3.85          	-4.000137e-01
3.86          	-4.000203e-01
3.87          	-4.000270e-01
3.88          	-4.000341e-01
3.89          	-4.000415e-01
3.9           	-4.000495e-01
3.91          	-4.000582e-01
3.92          	-4.000651e-01
3.93          	-4.000682e-01
3.94          	-4.000742e-01
3.95          	-4.000769e-01
3.96          	-4.000806e-01
3.97          	-4.000987e-01
3.98          	-4.001077e-01
3.99          	-4.001151e-01
4             	-4.001223e-01
4.01          	-4.001296e-01
4.02          	-4.001370e-01
4.03          	-4.001445e-01
4.04          	-4.001519e-01
4.05          	-4.001594e-01
4.06          	-4.001668e-01
4.07          	-4.001741e-01
4.08          	-4.001812e-01
4.09          	-4.001880e-01
4.1           	-4.001939e-01
4.11          	-4.001976e-01
4.12          	-4.002136e-01
4.13          	-4.002291e-01
4.14          	-4.002366e-01
4.15          	-4.002426e-01
4.16          	-4.002491e-01
4.17          	-4.002563e-01
4.18          	-4.002645e-01
4.19          	-4.002724e-01
4.2           	-4.002760e-01
4.21          	-4.002834e-01
4.22          	-4.002914e-01
4.23          	-4.002994e-01
4.24          	-4.003073e-01
4.25          	-4.003151e-01
4.26          	-4.003228e-01
4.27          	-4.003305e-01
4.28          	-4.003382e-01
4.29          	-4.003454e-01
4.3           	-4.003528e-01
4.31          	-4.003603e-01
4.32          	-4.003681e-01
4.33          	-4.003761e-01
4.34          	-4.003838e-01
4.35          	-4.003914e-01
4.36          	-4.003990e-01
4.37          	-4.004066e-01
4.38          	-4.004142e-01
4.39          	-4.004218e-01
4.4           	-4.004294e-01
4.41          	-4.004369e-01
4.42          	-4.004445e-01
4.43          	-4.004521e-01
4.44          	-4.004596e-01
4.45          	-4.004672e-01
4.46          	-4.004747e-01
4.47          	-4.004822e-01
4.48          	-4.004898e-01
4.49          	-4.004973e-01
4.5           	-4.005048e-01
4.51          	-4.005123e-01
4.52          	-4.005198e-01
4.53          	-4.005272e-01
4.54          	-4.005347e-01
4.55          	-4.005422e-01
4.56          	-4.005496e-01
4.57          	-4.005570e-01
4.58          	-4.005645e-01
4.59          	-4.005719e-01
4.6           	-4.005792e-01
4.61          	-4.005866e-01
4.62          	-4.005940e-01
4.63          	-4.006014e-01
4.64          	-4.006087e-01
4.65          	-4.006160e-01
4.66          	-4.006233e-01
4.67          	-4.006306e-01
4.68          	-4.006379e-01
4.69          	-4.006451e-01
4.7           	-4.006524e-01
4.71          	-4.006597e-01
4.72          	-4.006668e-01
4.73          	-4.006738e-01
4.74          	-4.006807e-01
4.75          	-4.006873e-01
4.76          	-4.006931e-01
4.77          	-4.006938e-01
4.78          	-4.007099e-01
4.79          	-4.007221e-01
4.8           	-4.007291e-01
4.81          	-4.007352e-01
4.82          	-4.007414e-01
4.83          	-4.007479e-01
4.84          	-4.007546e-01
4.85          	-4.007615e-01
4.86          	-4.007684e-01
4.87          	-4.007754e-01
4.88          	-4.007824e-01
4.89          	-4.007894e-01
4.9           	-4.007964e-01
4.91          	-4.008033e-01
4.92          	-4.008103e-01
4.93          	-4.008173e-01
4.94          	-4.008242e-01
4.95          	-4.008312e-01
4.96          	-4.008381e-01
4.97          	-4.008450e-01
4.98          	-4.008519e-01
4.99          	-4.008588e-01
5             	-4.008656e-01
5.01          	-4.008725e-01
5.02          	-4.008793e-01
5.03          	-4.008862e-01
5.04          	-4.008930e-01
5.05          	-4.008998e-01
5.06          	-4.009065e-01
5.07          	-4.009133e-01
5.08          	-4.009201e-01
5.09          	-4.009268e-01
5.1           	-4.009335e-01
5.11          	-4.009402e-01
5.12          	-4.009469e-01
5.13          	-4.009535e-01
5.14          	-4.009602e-01
5.15          	-4.009668e-01
5.16          	-4.009734e-01
5.17          	-4.009800e-01
5.18          	-4.009866e-01
5.19          	-4.009935e-01
5.2           	-4.010006e-01
5.21          	-4.010072e-01
5.22          	-4.010137e-01
5.23          	-4.010193e-01
5.24          	-4.010257e-01
5.25          	-4.010323e-01
5.26          	-4.010387e-01
5.27          	-4.010456e-01
5.28          	-4.010522e-01
5.29          	-4.010586e-01
5.3           	-4.010649e-01
5.31          	-4.010719e-01
5.32          	-4.010783e-01
5.33          	-4.010845e-01
5.34          	-4.010907e-01
5.35          	-4.010969e-01
5.36          	-4.011032e-01
5.37          	-4.011094e-01
5.38          	-4.011157e-01
5.39          	-4.011219e-01
5.4           	-4.011281e-01
5.41          	-4.011343e-01
5.42          	-4.011405e-01
5.43          	-4.011467e-01
5.44          	-4.011528e-01
5.45          	-4.011590e-01
5.46          	-4.011651e-01
5.47          	-4.011712e-01
5.48          	-4.011773e-01
5.49          	-4.011833e-01
5.5           	-4.011894e-01
5.51          	-4.011954e-01
5.52          	-4.012014e-01
5.53          	-4.012074e-01
5.54          	-4.012134e-01
5.55          	-4.012194e-01
5.56          	-4.012254e-01
5.57          	-4.012313e-01
5.58          	-4.012372e-01
5.59          	-4.012431e-01
5.6           	-4.012490e-01
5.61          	-4.012549e-01
5.62          	-4.012607e-01
5.63          	-4.012665e-01
5.64          	-4.012724e-01
5.65          	-4.012782e-01
5.66          	-4.012839e-01
5.67          	-4.012897e-01
5.68          	-4.012955e-01
5.69          	-4.013012e-01
5.7           	-4.013069e-01
5.71          	-4.013126e-01
5.72          	-4.013183e-01
5.73          	-4.013239e-01
5.74          	-4.013296e-01
5.75          	-4.013352e-01
5.76          	-4.013408e-01
5.77          	-4.013464e-01
5.78          	-4.013520e-01
5.79          	-4.013575e-01
5.8           	-4.013631e-01
5.81          	-4.013686e-01
5.82          	-4.013741e-01
5.83          	-4.013796e-01
5.84          	-4.013851e-01
5.85          	-4.013905e-01
5.86          	-4.013960e-01
5.87          	-4.014014e-01
5.88          	-4.014068e-01
5.89          	-4.014122e-01
5.9           	-4.014176e-01
5.91          	-4.014229e-01
5.92          	-4.014282e-01
5.93          	-4.014336e-01
5.94          	-4.014389e-01
5.95          	-4.014442e-01
5.96          	-4.014494e-01
5.97          	-4.014547e-01
5.98          	-4.014599e-01
5.99          	-4.014651e-01
6             	-4.014703e-01
6.01          	-4.014755e-01
6.02          	-4.014807e-01
6.03          	-4.014858e-01
6.04          	-4.014910e-01
6.05          	-4.014961e-01
6.06          	-4.015012e-01
6.07          	-4.015063e-01
6.08          	-4.015113e-01
6.09          	-4.015164e-01
6.1           	-4.015214e-01
6.11          	-4.015264e-01
6.12          	-4.015314e-01
6.13          	-4.015364e-01
6.14          	-4.015414e-01
6.15          	-4.015463e-01
6.16          	-4.015512e-01
6.17          	-4.015562e-01
6.18          	-4.015611e-01
6.19          	-4.015659e-01
6.2           	-4.015708e-01
6.21          	-4.015757e-01
6.22          	-4.015805e-01
6.23          	-4.015853e-01
6.24          	-4.015901e-01
6.25          	-4.015949e-01
6.26          	-4.015997e-01
6.27          	-4.016045e-01
6.28          	-4.016092e-01
6.29          	-4.016139e-01
6.3           	-4.016187e-01
6.31          	-4.016234e-01
6.32          	-4.016281e-01
6.33          	-4.016329e-01
6.34          	-4.016381e-01
6.35          	-4.016425e-01
6.36          	-4.016456e-01
6.37          	-4.016506e-01
6.38          	-4.016550e-01
6.39          	-4.016598e-01
6.4           	-4.016644e-01
6.41          	-4.016690e-01
6.42          	-4.016735e-01
6.43          	-4.016780e-01
6.44          	-4.016825e-01
6.45          	-4.016870e-01
6.46          	-4.016914e-01
6.47          	-4.016959e-01
6.48          	-4.017003e-01
6.49          	-4.017047e-01
6.5           	-4.017093e-01
6.51          	-4.017134e-01
6.52          	-4.017177e-01
6.53          	-4.017222e-01
6.54          	-4.017264e-01
6.55          	-4.017307e-01
6.56          	-4.017350e-01
6.57          	-4.017393e-01
6.58          	-4.017435e-01
6.59          	-4.017478e-01
6.6           	-4.017520e-01
6.61          	-4.017562e-01
6.62          	-4.017604e-01
6.63          	-4.017646e-01
6.64          	-4.017687e-01
6.65          	-4.017729e-01
6.66          	-4.017770e-01
6.67          	-4.017811e-01
6.68          	-4.017852e-01
6.69          	-4.017893e-01
6.7           	-4.017934e-01
6.71          	-4.017974e-01
6.72          	-4.018014e-01
6.73          	-4.018055e-01
6.74          	-4.018095e-01
6.75          	-4.018135e-01
6.76          	-4.018174e-01
6.77          	-4.018214e-01
6.78          	-4.018253e-01
6.79          	-4.018293e-01
6.8           	-4.018332e-01
6.81          	-4.018371e-01
6.82          	-4.018409e-01
6.83          	-4.018448e-01
6.84          	-4.018486e-01
6.85          	-4.018525e-01
6.86          	-4.018563e-01
6.87          	-4.018601e-01
6.88          	-4.018638e-01
6.89          	-4.018676e-01
6.9           	-4.018713e-01
6.91          	-4.018750e-01
6.92          	-4.018787e-01
6.93          	-4.018823e-01
6.94          	-4.018859e-01
6.95          	-4.018894e-01
6.96          	-4.018928e-01
6.97          	-4.018961e-01
6.98          	-4.018990e-01
6.99          	-4.019008e-01
7             	-4.019057e-01
7.01          	-4.019087e-01
7.02          	-4.019235e-01
7.03          	-4.019199e-01
7.04          	-4.019269e-01
7.05          	-4.019227e-01
7.06          	-4.019353e-01
7.07          	-4.019314e-01
7.08          	-4.019402e-01
7.09          	-4.019367e-01
7.1           	-4.019485e-01
7.11          	-4.019450e-01
7.12          	-4.019542e-01
7.13          	-4.019508e-01
7.14          	-4.019620e-01
7.15          	-4.019585e-01
7.16          	-4.019680e-01
7.17          	-4.019646e-01
7.18          	-4.019754e-01
7.19          	-4.019720e-01
7.2           	-4.019815e-01
7.21          	-4.019782e-01
7.22          	-4.019886e-01
7.23          	-4.019853e-01
7.24          	-4.019948e-01
7.25          	-4.019916e-01
7.26          	-4.020017e-01
7.27          	-4.019985e-01
7.28          	-4.020079e-01
7.29          	-4.020048e-01
7.3           	-4.020146e-01
7.31          	-4.020114e-01
7.32          	-4.020208e-01
7.33          	-4.020177e-01
7.34          	-4.020273e-01
7.35          	-4.020242e-01
7.36          	-4.020335e-01
7.37          	-4.020304e-01
7.38          	-4.020399e-01
7.39          	-4.020368e-01
7.4           	-4.020460e-01
7.41          	-4.020430e-01
7.42          	-4.020522e-01
7.43          	-4.020492e-01
7.44          	-4.020583e-01
7.45          	-4.020553e-01
7.46          	-4.020644e-01
7.47          	-4.020615e-01
7.48          	-4.020704e-01
7.49          	-4.020675e-01
7.5           	-4.020764e-01
7.51          	-4.020735e-01
7.52          	-4.020823e-01
7.53          	-4.020795e-01
7.54          	-4.020883e-01
7.55          	-4.020855e-01
7.56          	-4.020943e-01
7.57          	-4.020916e-01
7.58          	-4.021005e-01
7.59          	-4.020974e-01
7.6           	-4.021046e-01
7.61          	-4.021015e-01
7.62          	-4.021105e-01
7.63          	-4.021077e-01
7.64          	-4.021163e-01
7.65          	-4.021136e-01
7.66          	-4.021220e-01
7.67          	-4.021193e-01
7.68          	-4.021275e-01
7.69          	-4.021249e-01
7.7           	-4.021331e-01
7.71          	-4.021304e-01
7.72          	-4.021385e-01
7.73          	-4.021359e-01
7.74          	-4.021440e-01
7.75          	-4.021414e-01
7.76          	-4.021493e-01
7.77          	-4.021468e-01
7.78          	-4.021547e-01
7.79          	-4.021521e-01
7.8           	-4.021599e-01
7.81          	-4.021574e-01
7.82          	-4.021652e-01
7.83          	-4.021627e-01
7.84          	-4.021704e-01
7.85          	-4.021679e-01
7.86          	-4.021755e-01
7.87          	-4.021731e-01
7.88          	-4.021806e-01
7.89          	-4.021782e-01
7.9           	-4.021857e-01
7.91          	-4.021833e-01
7.92          	-4.021907e-01
7.93          	-4.021883e-01
7.94          	-4.021957e-01
7.95          	-4.021933e-01
7.96          	-4.022006e-01
7.97          	-4.021983e-01
7.98          	-4.022055e-01
7.99          	-4.022032e-01
8             	-4.022104e-01
8.01          	-4.022081e-01
8.02          	-4.022152e-01
8.03          	-4.022129e-01
8.04          	-4.022200e-01
8.05          	-4.022177e-01
8.06          	-4.022247e-01
8.07          	-4.022224e-01
8.08          	-4.022294e-01
8.09          	-4.022272e-01
8.1           	-4.022340e-01
8.11          	-4.022318e-01
8.12          	-4.022386e-01
8.13          	-4.022365e-01
8.14          	-4.022432e-01
8.15          	-4.022411e-01
8.16          	-4.022477e-01
8.17          	-4.022456e-01
8.18          	-4.022522e-01
8.19          	-4.022501e-01
8.2           	-4.022567e-01
8.21          	-4.022546e-01
8.22          	-4.022611e-01
8.23          	-4.022590e-01
8.24          	-4.022655e-01
8.25          	-4.022634e-01
8.26          	-4.022698e-01
8.27          	-4.022678e-01
8.28          	-4.022741e-01
8.29          	-4.022721e-01
8.3           	-4.022784e-01
8.31          	-4.022763e-01
8.32          	-4.022827e-01
8.33          	-4.022806e-01
8.34          	-4.022869e-01
8.35          	-4.022848e-01
8.36          	-4.022911e-01
8.37          	-4.022890e-01
8.38          	-4.022952e-01
8.39          	-4.022931e-01
8.4           	-4.022993e-01
8.41          	-4.022973e-01
8.42          	-4.023033e-01
8.43          	-4.023013e-01
8.44          	-4.023074e-01
8.45          	-4.023054e-01
8.46          	-4.023113e-01
8.47          	-4.023094e-01
8.48          	-4.023153e-01
8.49          	-4.023134e-01
8.5           	-4.023192e-01
8.51          	-4.023173e-01
8.52          	-4.023231e-01
8.53          	-4.023212e-01
8.54          	-4.023269e-01
8.55          	-4.023251e-01
8.56          	-4.023308e-01
8.57          	-4.023289e-01
8.58          	-4.023346e-01
8.59          	-4.023327e-01
8.6           	-4.023383e-01
8.61          	-4.023365e-01
8.62          	-4.023420e-01
8.63          	-4.023402e-01
8.64          	-4.023457e-01
8.65          	-4.023439e-01
8.66          	-4.023494e-01
8.67          	-4.023476e-01
8.68          	-4.023530e-01
8.69          	-4.023512e-01
8.7           	-4.023566e-01
8.71          	-4.023549e-01
8.72          	-4.023602e-01
8.73          	-4.023584e-01
8.74          	-4.023637e-01
8.75          	-4.023620e-01
8.76          	-4.023672e-01
8.77          	-4.023655e-01
8.78          	-4.023707e-01
8.79          	-4.023690e-01
8.8           	-4.023741e-01
8.81          	-4.023724e-01
8.82          	-4.023775e-01
8.83          	-4.023759e-01
8.84          	-4.023809e-01
8.85          	-4.023793e-01
8.86          	-4.023843e-01
8.87          	-4.023826e-01
8.88          	-4.023876e-01
8.89          	-4.023860e-01
8.9           	-4.023909e-01
8.91          	-4.023893e-01
8.92          	-4.023941e-01
8.93          	-4.023925e-01
8.94          	-4.023974e-01
8.95          	-4.023958e-01
8.96          	-4.024006e-01
8.97          	-4.023990e-01
8.98          	-4.024038e-01
8.99          	-4.024022e-01
9             	-4.024069e-01
9.01          	-4.024054e-01
9.02          	-4.024100e-01
9.03          	-4.024085e-01
9.04          	-4.024131e-01
9.05          	-4.024116e-01
9.06          	-4.024162e-01
9.07          	-4.024144e-01
9.08          	-4.024198e-01
9.09          	-4.024176e-01
9.1           	-4.024225e-01
9.11          	-4.024205e-01
9.12          	-4.024257e-01
9.13          	-4.024236e-01
9.14          	-4.024285e-01
9.15          	-4.024265e-01
9.16          	-4.024315e-01
9.17          	-4.024295e-01
9.18          	-4.024344e-01
9.19          	-4.024324e-01
9.2           	-4.024373e-01
9.21          	-4.024353e-01
9.22          	-4.024402e-01
9.23          	-4.024382e-01
9.24          	-4.024383e-01
9.25          	-4.024462e-01
9.26          	-4.024448e-01
9.27          	-4.024445e-01
9.28          	-4.024436e-01
9.29          	-4.024514e-01
9.3           	-4.024499e-01
9.31          	-4.024498e-01
9.32          	-4.024535e-01
9.33          	-4.024520e-01
9.34          	-4.024569e-01
9.35          	-4.024549e-01
9.36          	-4.024549e-01
9.37          	-4.024624e-01
9.38          	-4.024610e-01
9.39          	-4.024607e-01
9.4           	-4.024599e-01
9.41          	-4.024674e-01
9.42          	-4.024660e-01
9.43          	-4.024659e-01
9.44          	-4.024692e-01
9.45          	-4.024681e-01
9.46          	-4.024679e-01
9.47          	-4.024759e-01
9.48          	-4.024746e-01
9.49          	-4.024743e-01
9.5           	-4.024727e-01
9.51          	-4.024808e-01
9.52          	-4.024788e-01
9.53          	-4.024782e-01
9.54          	-4.024826e-01
9.55          	-4.024811e-01
9.56          	-4.024811e-01
9.57          	-4.024884e-01
9.58          	-4.024870e-01
9.59          	-4.024865e-01
9.6           	-4.024851e-01
9.61          	-4.024939e-01
9.62          	-4.024920e-01
9.63          	-4.024912e-01
9.64          	-4.024906e-01
9.65          	-4.024973e-01
9.66          	-4.024960e-01
9.67          	-4.024957e-01
9.68          	-4.024993e-01
9.69          	-4.024980e-01
9.7           	-4.024980e-01
9.71          	-4.025046e-01
9.72          	-4.025033e-01
9.73          	-4.025030e-01
9.74          	-4.025015e-01
9.75          	-4.025099e-01
9.76          	-4.025081e-01
9.77          	-4.025069e-01
9.78          	-4.025071e-01
9.79          	-4.025131e-01
9.8           	-4.025120e-01
9.81          	-4.025117e-01
9.82          	-4.025103e-01
9.83          	-4.025191e-01
9.84          	-4.025173e-01
9.85          	-4.025162e-01
9.86          	-4.025163e-01
9.87          	-4.025211e-01
9.88          	-4.025199e-01
9.89          	-4.025198e-01
9.9           	-4.025184e-01
9.91          	-4.025286e-01
9.92          	-4.025268e-01
9.93          	-4.025257e-01
9.94          	-4.025255e-01
9.95          	-4.025242e-01
9.96          	-4.025321e-01
9.97          	-4.025305e-01
9.98          	-4.025295e-01
9.99          	-4.025297e-01
10            	-4.025351e-01
10.01         	-4.025340e-01
10.02         	-4.025338e-01
10.03         	-4.025325e-01
10.04         	-4.025405e-01
10.05         	-4.025390e-01
10.06         	-4.025378e-01
10.07         	-4.025381e-01
10.08         	-4.025367e-01
10.09         	-4.025464e-01
10.1          	-4.025450e-01
10.11         	-4.025439e-01
10.12         	-4.025437e-01
10.13         	-4.025424e-01
10.14         	-4.025492e-01
10.15         	-4.025478e-01
10.16         	-4.025467e-01
10.17         	-4.025472e-01
10.18         	-4.025458e-01
10.19         	-4.025568e-01
10.2          	-4.025555e-01
10.21         	-4.025500e-01
10.22         	-4.025543e-01
10.23         	-4.025532e-01
10.24         	-4.025535e-01
10.25         	-4.025595e-01
10.26         	-4.025586e-01
10.27         	-4.025584e-01
10.28         	-4.025571e-01
10.29         	-4.025575e-01
10.3          	-4.025643e-01