# Selection   : all
# Cells       : 8
# Volume      : 1.000000e+00
# Time        	min(p)
0             	0.000000e+00
1             	-8.479100e-03
2             	-1.661681e-02
3             	-1.806701e-02
4             	-1.642783e-02
5             	-1.612881e-02
6             	-1.620293e-02
7             	-1.623601e-02
8             	-1.622280e-02
9             	-1.619670e-02
10            	-1.616544e-02
