/*--------------------------------*- C++ -*----------------------------------*\
  =========                 |
  \\      /  F ield         | OpenFOAM: The Open Source CFD Toolbox
   \\    /   O peration     | Website:  https://openfoam.org
    \\  /    A nd           | Version:  13
     \\/     M anipulation  |
\*---------------------------------------------------------------------------*/
FoamFile
{
    format      ascii;
    class       volScalarField;
    location    "38";
    object      p;
}
// * * * * * * * * * * * * * * * * * * * * * * * * * * * * * * * * * * * * * //

dimensions      [0 2 -2 0 0 0 0];

internalField   nonuniform List<scalar> 
400
(
-2.00393e-09
-0.000527523
-0.00117065
-0.00166791
-0.00189979
-0.00181711
-0.00139561
-0.000624599
0.000486657
0.00189389
0.0035029
0.00516333
0.00667953
0.00784213
0.00847814
0.00850725
0.00798504
0.00711699
0.00623417
0.00568189
0.000534541
-1.12253e-05
-0.000578822
-0.000975886
-0.00114966
-0.00107346
-0.000726351
-9.35099e-05
0.000825201
0.00200053
0.003359
0.00477585
0.00608231
0.0070938
0.00765543
0.00769393
0.00725583
0.00651256
0.00572466
0.00516275
0.00120284
0.000519571
-8.01768e-05
-0.000442693
-0.00060141
-0.000563892
-0.000315086
0.000167351
0.000899599
0.00187405
0.00304101
0.00429709
0.00548831
0.00643453
0.00697462
0.00702087
0.00659952
0.0058502
0.00497771
0.00424565
0.00168246
0.000801259
8.46104e-05
-0.000321038
-0.000526914
-0.000573382
-0.000449014
-0.000119281
0.000454231
0.0012909
0.00236626
0.00359302
0.00481745
0.00584025
0.00646405
0.0065573
0.00610809
0.00522902
0.00410567
0.00307224
0.0017188
0.000637346
-0.000222237
-0.000714879
-0.00101806
-0.00119731
-0.0012388
-0.00108963
-0.000682329
3.67687e-05
0.00107495
0.00236485
0.00374981
0.00499823
0.00585141
0.00610086
0.00566596
0.00461991
0.003149
0.00171848
0.00110099
-0.000159018
-0.00116306
-0.00177219
-0.00221982
-0.00258861
-0.00285599
-0.00294442
-0.00274944
-0.00217253
-0.00116131
0.000251376
0.00191465
0.00356165
0.00485011
0.00545271
0.00516988
0.00399732
0.00211939
0.000193642
-0.000348342
-0.00175475
-0.00289656
-0.00364908
-0.00429243
-0.00492024
-0.00549703
-0.00591568
-0.00602672
-0.00567274
-0.00473463
-0.00318765
-0.00114864
0.00109175
0.00309261
0.00435794
0.00449231
0.00333575
0.00103156
-0.00150058
-0.00276578
-0.0042802
-0.00554911
-0.00647138
-0.00736602
-0.00833471
-0.00932852
-0.0102091
-0.0107754
-0.0107965
-0.0100606
-0.00844334
-0.00598573
-0.00296479
8.57994e-05
0.00245424
0.00344458
0.00260505
-6.557e-05
-0.00331648
-0.00623534
-0.00781471
-0.00919454
-0.0103065
-0.0115034
-0.0128966
-0.0144282
-0.0159314
-0.0171516
-0.0177719
-0.01746
-0.015946
-0.0131305
-0.00920767
-0.00475862
-0.000730545
0.00176319
0.00177367
-0.00105199
-0.00509898
-0.0107788
-0.0123758
-0.0138377
-0.0151374
-0.016662
-0.0185406
-0.0207161
-0.023002
-0.0250938
-0.0265831
-0.0269964
-0.0258739
-0.0229046
-0.0180983
-0.0119831
-0.00569717
-0.000857807
0.000829253
-0.00168642
-0.00649875
-0.0163556
-0.0179175
-0.0194062
-0.0208427
-0.0226611
-0.0250252
-0.027894
-0.0310733
-0.0342181
-0.0368329
-0.0382953
-0.0379256
-0.0351459
-0.0296638
-0.0218052
-0.0127588
-0.00463555
-0.000148977
-0.00152823
-0.00684058
-0.022882
-0.0243454
-0.0257559
-0.0271913
-0.0291676
-0.0319129
-0.0354207
-0.0395018
-0.0437808
-0.0476849
-0.0504527
-0.0511898
-0.0489842
-0.0431895
-0.0337551
-0.0216892
-0.00942567
-0.000816222
0.000195857
-0.00492764
-0.0302804
-0.031554
-0.0326931
-0.0338531
-0.0357064
-0.0385906
-0.0425507
-0.0474064
-0.0527552
-0.0579541
-0.0621142
-0.0641364
-0.0628175
-0.0570904
-0.0464134
-0.0313572
-0.0143469
-0.000258404
0.00482757
0.00123865
-0.0385814
-0.0394913
-0.040007
-0.0404216
-0.0416975
-0.0443367
-0.0484391
-0.05382
-0.0600339
-0.0663605
-0.0717898
-0.0750408
-0.0746456
-0.0691499
-0.0574847
-0.0395947
-0.0174865
0.00336124
0.0146297
0.0148164
-0.0481268
-0.0482624
-0.047504
-0.0464384
-0.0465113
-0.0484236
-0.0522968
-0.0578953
-0.0646902
-0.0718536
-0.0782405
-0.0823934
-0.0826059
-0.0770886
-0.0642946
-0.0434956
-0.0159419
0.012958
0.0330439
0.0403431
-0.0599165
-0.0582961
-0.055052
-0.0514296
-0.0495538
-0.0502528
-0.0535604
-0.0591032
-0.0662008
-0.0738673
-0.0807868
-0.0853057
-0.0854772
-0.0792021
-0.0645186
-0.0400955
-0.00628434
0.0322886
0.0644778
0.0832647
-0.0761981
-0.0706615
-0.0626215
-0.0549486
-0.050364
-0.0494755
-0.0520104
-0.0573302
-0.0645201
-0.0723785
-0.0793789
-0.0836402
-0.0829476
-0.0748585
-0.0569727
-0.0273697
0.0145213
0.0654498
0.11435
0.150148
-0.104124
-0.0879002
-0.0699654
-0.0562645
-0.0483663
-0.0457585
-0.04754
-0.0526534
-0.0598627
-0.0677147
-0.0744642
-0.0780025
-0.0758392
-0.0651282
-0.0428731
-0.00624727
0.0466991
0.115272
0.191437
0.258244
-0.175938
-0.114859
-0.0736022
-0.0518938
-0.0411856
-0.0375663
-0.0392534
-0.0446797
-0.0522413
-0.0602741
-0.0668971
-0.0698576
-0.0664755
-0.0535681
-0.0274051
0.0163566
0.0826688
0.177312
0.305359
0.452634
-0.355809
-0.155224
-0.0704186
-0.0427819
-0.0313524
-0.0275941
-0.0297542
-0.0359159
-0.0441429
-0.0526405
-0.059499
-0.0624578
-0.0587875
-0.0451546
-0.0172594
0.0307747
0.108372
0.233303
0.434751
0.735821
)
;

boundaryField
{
    movingWall
    {
        type            zeroGradient;
    }
    fixedWalls
    {
        type            zeroGradient;
    }
    frontAndBack
    {
        type            empty;
    }
}


// ************************************************************************* //
