/*--------------------------------*- C++ -*----------------------------------*\
  =========                 |
  \\      /  F ield         | OpenFOAM: The Open Source CFD Toolbox
   \\    /   O peration     | Website:  https://openfoam.org
    \\  /    A nd           | Version:  13
     \\/     M anipulation  |
\*---------------------------------------------------------------------------*/
FoamFile
{
    format      ascii;
    class       surfaceScalarField;
    location    "38";
    object      phi_0;
}
// * * * * * * * * * * * * * * * * * * * * * * * * * * * * * * * * * * * * * //

dimensions      [0 3 -1 0 0 0 0];

internalField   nonuniform List<scalar> 
760
(
4.54067e-06
-4.54077e-06
-3.88753e-05
4.34155e-05
-0.000131413
9.2538e-05
-0.000257163
0.000125751
-0.00040022
0.000143057
-0.000547213
0.000146994
-0.000686284
0.000139073
-0.000805716
0.000119433
-0.000893371
8.76536e-05
-0.000937383
4.40114e-05
-0.000928074
-9.30921e-06
-0.000860717
-6.73568e-05
-0.000738344
-0.000122372
-0.000573635
-0.000164708
-0.000388739
-0.000184897
-0.000212222
-0.000176518
-7.31512e-05
-0.00013907
6.76124e-06
-7.99118e-05
2.25734e-05
-1.5812e-05
2.2574e-05
-4.72392e-05
4.2699e-05
-0.000209391
0.000205568
-0.000473068
0.000356216
-0.000805697
0.00045838
-0.00117301
0.000510378
-0.0015435
0.000517481
-0.00188769
0.000483259
-0.00217672
0.000408459
-0.00238223
0.00029317
-0.00247844
0.000140216
-0.00244611
-4.16398e-05
-0.00227771
-0.000235747
-0.00198245
-0.000417634
-0.00158919
-0.000557964
-0.00114575
-0.000628342
-0.000712807
-0.00060946
-0.000352287
-0.000499591
-0.00011152
-0.00032068
-5.95653e-06
-0.000121373
1.6618e-05
-0.000111755
0.000154454
-0.000405131
0.000498943
-0.000834028
0.000785114
-0.0013494
0.00097375
-0.00190432
0.0010653
-0.00245532
0.00106848
-0.00296114
0.000989078
-0.00338151
0.000828833
-0.00367773
0.000589386
-0.00381551
0.000277995
-0.00376992
-8.72295e-05
-0.00353139
-0.000474269
-0.00311159
-0.000837432
-0.00254733
-0.00112223
-0.00190049
-0.00127518
-0.00125177
-0.00125818
-0.000686847
-0.00106452
-0.000276191
-0.000731333
-5.33887e-05
-0.000344174
-3.67714e-05
-0.000173154
0.000327608
-0.000593216
0.000919004
-0.0011781
0.00136999
-0.00185985
0.00165551
-0.00258047
0.00178591
-0.00328828
0.0017763
-0.00393477
0.00163557
-0.00447273
0.00136679
-0.00485678
0.000973435
-0.00504632
0.000467539
-0.00501049
-0.000123049
-0.00473453
-0.000750236
-0.00422654
-0.00134541
-0.00352352
-0.00182525
-0.00269402
-0.00210468
-0.00183441
-0.00211779
-0.00105522
-0.0018437
-0.000457261
-0.0013293
-0.000103504
-0.000697932
-0.000140276
-0.000227821
0.000555428
-0.000762424
0.0014536
-0.00148861
0.00209618
-0.00232011
0.00248701
-0.00318928
0.00265509
-0.00403908
0.0026261
-0.00481718
0.00241367
-0.00547279
0.0020224
-0.00595626
0.00145691
-0.00622122
0.000732499
-0.00622893
-0.000115335
-0.00595461
-0.00102456
-0.00539567
-0.00190435
-0.00458093
-0.00263999
-0.00357853
-0.00310709
-0.00249776
-0.00319856
-0.00147841
-0.00286305
-0.000663166
-0.00214454
-0.000158125
-0.00120297
-0.000298401
-0.00027394
0.000829367
-0.000906197
0.00208586
-0.00175387
0.00294385
-0.00271516
0.00344829
-0.003715
0.00365493
-0.00469358
0.00360468
-0.00559778
0.00331787
-0.00637607
0.0028007
-0.00697648
0.00205732
-0.00734718
0.00110319
-0.0074396
-2.29096e-05
-0.00721423
-0.00124994
-0.00665034
-0.00246824
-0.0057591
-0.00353123
-0.00459872
-0.00426747
-0.00328575
-0.00451154
-0.00199199
-0.0041568
-0.000915544
-0.00322099
-0.000224783
-0.00189373
-0.000523184
-0.000309642
0.00113901
-0.00101838
0.00279459
-0.00196235
0.00388782
-0.00302804
0.00451398
-0.00413571
0.0047626
-0.00522532
0.00469429
-0.00624579
0.00433834
-0.00714771
0.00370261
-0.00787915
0.00278876
-0.00838418
0.00160823
-0.00860388
0.000196789
-0.00848128
-0.00137254
-0.00797106
-0.00297846
-0.00705651
-0.00444577
-0.00577274
-0.00555124
-0.00423117
-0.00605311
-0.00263169
-0.00575628
-0.00123988
-0.0046128
-0.000312917
-0.0028207
-0.000836102
-0.000333042
0.00147205
-0.00109294
0.00355449
-0.00210225
0.00489713
-0.00323981
0.00565154
-0.00442381
0.0059466
-0.00559649
0.00586697
-0.00671154
0.00545339
-0.00772476
0.00471583
-0.00858767
0.00365168
-0.00924347
0.00226402
-0.00962547
0.000578795
-0.00965959
-0.00133841
-0.00927286
-0.0033652
-0.00841156
-0.00530707
-0.00707136
-0.00689144
-0.00533752
-0.00778696
-0.00342158
-0.00767221
-0.00166053
-0.00637386
-0.000432875
-0.00404835
-0.00126898
-0.000342896
0.00181494
-0.00112546
0.00433705
-0.00216374
0.00593541
-0.00333248
0.00682029
-0.0045501
0.00716421
-0.00576322
0.0070801
-0.00693296
0.00662312
-0.0080238
0.00580668
-0.00899519
0.00462307
-0.00979493
0.00306376
-0.0103547
0.00113853
-0.0105886
-0.0011045
-0.0103982
-0.00355553
-0.00968808
-0.00601724
-0.00839821
-0.00818131
-0.00655903
-0.00962614
-0.00436035
-0.00987089
-0.00219557
-0.00853864
-0.000595524
-0.0056484
-0.0018645
-0.000339703
0.00215465
-0.00111577
0.00511311
-0.00214303
0.00696268
-0.00329464
0.00797189
-0.00449102
0.00836058
-0.00568513
0.00827421
-0.00684801
0.007786
-0.00795647
0.00691513
-0.00898303
0.00564963
-0.00988738
0.00396811
-0.0106088
0.00185991
-0.01106
-0.000653234
-0.0111268
-0.00348879
-0.0106745
-0.00646949
-0.00957778
-0.00927805
-0.00778161
-0.0114223
-0.00540393
-0.0122486
-0.00284899
-0.0110936
-0.000811649
-0.00768574
-0.00267615
-0.000327184
0.00248183
-0.00107148
0.0058574
-0.00204776
0.00793896
-0.00312858
0.00905271
-0.00423815
0.00947014
-0.00533798
0.00937404
-0.00641164
0.00885966
-0.00745165
0.00795514
-0.00844872
0.00664671
-0.00938199
0.00490137
-0.0102093
0.00268722
-0.0108557
-6.83437e-06
-0.0112079
-0.00313655
-0.0111059
-0.0065715
-0.0103615
-0.0100225
-0.00881258
-0.0129712
-0.00644715
-0.014614
-0.00359831
-0.0139424
-0.00109027
-0.0101938
-0.00376642
-0.000314211
0.00279604
-0.00101213
0.00655532
-0.00190269
0.00882953
-0.00285741
0.0100074
-0.00380722
0.01042
-0.00472578
0.0102926
-0.00561235
0.00974622
-0.00647827
0.00882106
-0.00733627
0.00750471
-0.00819085
0.00575595
-0.00902752
0.00352389
-0.00980097
0.000766615
-0.0104151
-0.00252244
-0.0107115
-0.00627509
-0.0104597
-0.0102743
-0.00938979
-0.0140411
-0.00731175
-0.016692
-0.0043781
-0.0168761
-0.00143464
-0.0131372
-0.00520106
-0.00031753
0.00311357
-0.000973932
0.00721172
-0.0017547
0.00961029
-0.00252958
0.0107823
-0.00324273
0.0111331
-0.00388662
0.0109365
-0.00448085
0.0103405
-0.00505826
0.00939846
-0.00565548
0.00810193
-0.00630492
0.0064054
-0.00702552
0.00424449
-0.00780968
0.00155077
-0.00860267
-0.00172946
-0.00927603
-0.00560173
-0.00959628
-0.00995403
-0.00921595
-0.0144215
-0.00775106
-0.0181569
-0.00506397
-0.0195632
-0.00183421
-0.016367
-0.00703527
-0.000366232
0.0034798
-0.00101509
0.00786058
-0.00167496
0.0102702
-0.00221682
0.0113242
-0.00261214
0.0115284
-0.0028842
0.0112086
-0.00307974
0.010536
-0.00325549
0.00957421
-0.00347158
0.00831803
-0.00378678
0.0067206
-0.00425258
0.00471028
-0.0049032
0.00220139
-0.0057374
-0.000895251
-0.0066866
-0.00465254
-0.0075643
-0.00907633
-0.00800769
-0.0139781
-0.00747369
-0.0186909
-0.00546346
-0.0215734
-0.00225041
-0.01958
-0.00928568
-0.000508509
0.00398831
-0.00121943
0.0085715
-0.00175157
0.0108023
-0.00199451
0.0115671
-0.00197598
0.0115099
-0.00176932
0.0110019
-0.0014573
0.010224
-0.00112255
0.00923945
-0.000846267
0.00804174
-0.000708572
0.00658291
-0.000787543
0.00478925
-0.00115493
0.00256877
-0.00186464
-0.000185529
-0.00292584
-0.00359134
-0.00424605
-0.00775611
-0.00553073
-0.0126934
-0.00617077
-0.0180509
-0.00531255
-0.0224316
-0.00259402
-0.0222986
-0.0118797
-0.000813856
0.00480217
-0.00168303
0.00944067
-0.00204409
0.0111634
-0.00186612
0.0113891
-0.00129012
0.0109339
-0.00046661
0.0101784
0.000476772
0.0092806
0.00143176
0.00828447
0.00230093
0.00717258
0.00299034
0.00589349
0.00340449
0.0043751
0.00344427
0.002529
0.00300977
0.000248977
0.0020151
-0.00259667
0.000433097
-0.00617412
-0.00159048
-0.0106698
-0.00352229
-0.0161191
-0.00426688
-0.021687
-0.00269137
-0.0238741
-0.0145711
-0.00134964
0.00615181
-0.00242116
0.0105122
-0.00238948
0.0111317
-0.00150139
0.010501
-0.000112752
0.00954526
0.00152541
0.00854022
0.00324396
0.00756206
0.00491946
0.00660897
0.0064506
0.00564144
0.00774206
0.00460203
0.00869355
0.00342361
0.00919253
0.00203003
0.00910967
0.000331836
0.00830123
-0.00178823
0.00662806
-0.00450095
0.00404118
-0.00808293
0.000836682
-0.0129146
-0.00188874
-0.0189616
-0.00225755
-0.0235053
-0.0168286
-0.00213542
0.00828723
-0.0029224
0.0112992
-0.00168858
0.00989785
0.000531944
0.00828052
0.00311105
0.00696615
0.00575828
0.00589299
0.0083206
0.00499974
0.0107013
0.00422824
0.0128261
0.00351671
0.0146215
0.00280661
0.0160018
0.00204328
0.0168601
0.00117173
0.0170594
0.000132581
0.0164278
-0.00115666
0.0147499
-0.00282306
0.0117913
-0.00512428
0.00746091
-0.00858421
0.00244602
-0.0139467
-0.000884517
-0.0201748
-0.0177131
-0.00248743
0.0107747
-1.22154e-05
0.00882396
0.00417729
0.00570834
0.0083262
0.00413161
0.0121195
0.00317284
0.0155262
0.00248631
0.0185471
0.00197883
0.0211878
0.00158756
0.0234447
0.00125977
0.0252951
0.000956209
0.0266919
0.000646493
0.0275576
0.000306039
0.0277793
-8.90957e-05
0.0271973
-0.000574675
0.0255744
-0.00120018
0.0225491
-0.00209896
0.0176194
-0.00365452
0.0104015
-0.00672878
0.00247508
-0.0122484
-0.0152381
0.0107747
0.0195986
0.025307
0.0294386
0.0326114
0.0350977
0.0370766
0.0386641
0.0399239
0.0408801
0.0415266
0.0418326
0.0417435
0.0411689
0.0399687
0.0378697
0.0342152
0.0274864
0.0152381
)
;

boundaryField
{
    movingWall
    {
        type            calculated;
        value           uniform 0;
    }
    fixedWalls
    {
        type            calculated;
        value           uniform 0;
    }
    frontAndBack
    {
        type            empty;
    }
}


// ************************************************************************* //
