/*--------------------------------*- C++ -*----------------------------------*\
  =========                 |
  \\      /  F ield         | OpenFOAM: The Open Source CFD Toolbox
   \\    /   O peration     | Website:  https://openfoam.org
    \\  /    A nd           | Version:  13
     \\/     M anipulation  |
\*---------------------------------------------------------------------------*/
FoamFile
{
    format      ascii;
    class       volVectorField;
    location    "38";
    object      U_0;
}
// * * * * * * * * * * * * * * * * * * * * * * * * * * * * * * * * * * * * * //

dimensions      [0 1 -1 0 0 0 0];

internalField   nonuniform List<vector> 
400
(
(0.000181448 -0.000185306 0)
(-0.000139513 3.10782e-05 0)
(-0.00153214 0.000268651 0)
(-0.00377818 0.00041938 0)
(-0.00653076 0.000498996 0)
(-0.00948927 0.00052921 0)
(-0.0124043 0.000519804 0)
(-0.0150431 0.000469747 0)
(-0.0171658 0.000372337 0)
(-0.0185268 0.000222245 0)
(-0.0189011 2.27162e-05 0)
(-0.0181342 -0.000208899 0)
(-0.0162008 -0.00043875 0)
(-0.0132557 -0.000620435 0)
(-0.00965405 -0.000705476 0)
(-0.00592075 -0.000658974 0)
(-0.00266041 -0.000474661 0)
(-0.00041364 -0.000182918 0)
(0.00053501 0.000135478 0)
(0.00030811 0.000301165 0)
(-4.80369e-05 0.000138405 0)
(-0.00207293 0.00192769 0)
(-0.00641229 0.00374874 0)
(-0.0125409 0.00500776 0)
(-0.0197034 0.00567025 0)
(-0.0272306 0.00581243 0)
(-0.0345193 0.00548495 0)
(-0.0409895 0.00469439 0)
(-0.0460635 0.00343113 0)
(-0.0491849 0.00171457 0)
(-0.0498824 -0.000363046 0)
(-0.0478666 -0.00260819 0)
(-0.0431379 -0.00472502 0)
(-0.0360732 -0.00635179 0)
(-0.0274542 -0.00713676 0)
(-0.0184034 -0.00684297 0)
(-0.010207 -0.00545454 0)
(-0.00403226 -0.00325182 0)
(-0.000580597 -0.000864194 0)
(0.00021978 0.000584126 0)
(-0.000352823 0.00171323 0)
(-0.00446897 0.00644451 0)
(-0.0118249 0.010637 0)
(-0.0215179 0.0134718 0)
(-0.0324552 0.0149002 0)
(-0.0437276 0.0150495 0)
(-0.0544994 0.014009 0)
(-0.0639569 0.0118013 0)
(-0.0713007 0.00843997 0)
(-0.0757814 0.00401923 0)
(-0.0767812 -0.00120172 0)
(-0.0739289 -0.00674866 0)
(-0.0672254 -0.0119383 0)
(-0.0571479 -0.0159566 0)
(-0.0446967 -0.0180161 0)
(-0.0313391 -0.0175772 0)
(-0.0188119 -0.0145829 0)
(-0.00877815 -0.00963247 0)
(-0.00241831 -0.00405482 0)
(3.36362e-05 1.73192e-05 0)
(-0.000628986 0.00457893 0)
(-0.0067822 0.0136244 0)
(-0.017032 0.0208453 0)
(-0.0300297 0.0255367 0)
(-0.0443435 0.0277631 0)
(-0.0588838 0.0277428 0)
(-0.0726693 0.0256152 0)
(-0.0847456 0.0214269 0)
(-0.0941765 0.0152298 0)
(-0.100082 0.00721873 0)
(-0.101722 -0.00214414 0)
(-0.0986114 -0.0120563 0)
(-0.0906575 -0.0213809 0)
(-0.0782933 -0.028758 0)
(-0.0625741 -0.0328389 0)
(-0.0451812 -0.032637 0)
(-0.0282601 -0.0279337 0)
(-0.0140542 -0.0196057 0)
(-0.00442553 -0.00973667 0)
(-0.000126506 -0.00152271 0)
(-0.000866912 0.00861974 0)
(-0.0088522 0.0232412 0)
(-0.0217303 0.0340457 0)
(-0.0377146 0.0407666 0)
(-0.0550551 0.0437543 0)
(-0.0725269 0.0433939 0)
(-0.0890691 0.0399018 0)
(-0.103659 0.0333544 0)
(-0.115285 0.0238383 0)
(-0.122971 0.0116379 0)
(-0.125841 -0.00259869 0)
(-0.123229 -0.0177551 0)
(-0.114825 -0.032232 0)
(-0.100856 -0.0440611 0)
(-0.0822643 -0.0511904 0)
(-0.0608324 -0.0519653 0)
(-0.0391205 -0.0457584 0)
(-0.0201213 -0.0335538 0)
(-0.00666899 -0.0181897 0)
(-0.000272677 -0.00409332 0)
(-0.0010631 0.0136764 0)
(-0.0105994 0.0349958 0)
(-0.0257311 0.0498892 0)
(-0.0442933 0.0587998 0)
(-0.0642695 0.062537 0)
(-0.0843472 0.0617439 0)
(-0.103444 0.0567509 0)
(-0.12053 0.0476665 0)
(-0.134572 0.0345885 0)
(-0.14452 0.0178429 0)
(-0.14935 -0.0018033 0)
(-0.148149 -0.0229884 0)
(-0.140269 -0.0436912 0)
(-0.125551 -0.0612988 0)
(-0.104628 -0.0728921 0)
(-0.079209 -0.075838 0)
(-0.0522193 -0.0686948 0)
(-0.027564 -0.0522163 0)
(-0.00943019 -0.0299406 0)
(-0.000447673 -0.0078445 0)
(-0.00121016 0.0195586 0)
(-0.0119505 0.0485089 0)
(-0.0288594 0.0679326 0)
(-0.0494785 0.0791987 0)
(-0.0715947 0.083729 0)
(-0.0938586 0.0825175 0)
(-0.11522 0.0760501 0)
(-0.134701 0.064468 0)
(-0.1513 0.0478407 0)
(-0.163936 0.0264599 0)
(-0.171447 0.00110306 0)
(-0.172643 -0.0267462 0)
(-0.166444 -0.054744 0)
(-0.152148 -0.0796503 0)
(-0.129831 -0.0975381 0)
(-0.100855 -0.104426 0)
(-0.0683018 -0.0974755 0)
(-0.037045 -0.0766098 0)
(-0.0130705 -0.0458398 0)
(-0.000702861 -0.0131053 0)
(-0.00129954 0.026038 0)
(-0.0128346 0.0633144 0)
(-0.0309441 0.0876166 0)
(-0.0529687 0.101393 0)
(-0.0765718 0.106803 0)
(-0.100415 0.105282 0)
(-0.12353 0.0975172 0)
(-0.145052 0.0836844 0)
(-0.164075 0.0637836 0)
(-0.179556 0.0379817 0)
(-0.190255 0.00693158 0)
(-0.194741 -0.0279313 0)
(-0.191485 -0.0641119 0)
(-0.179125 -0.0978595 0)
(-0.156933 -0.124194 0)
(-0.125527 -0.137443 0)
(-0.0877176 -0.132634 0)
(-0.0491419 -0.107889 0)
(-0.0179852 -0.0670593 0)
(-0.00110135 -0.0204092 0)
(-0.00132653 0.0328519 0)
(-0.0132053 0.078868 0)
(-0.0318551 0.108265 0)
(-0.0544994 0.124652 0)
(-0.0787437 0.131028 0)
(-0.103301 0.12935 0)
(-0.127331 0.120562 0)
(-0.150139 0.104889 0)
(-0.170999 0.0822327 0)
(-0.189002 0.052552 0)
(-0.202951 0.0162358 0)
(-0.211292 -0.0255267 0)
(-0.212139 -0.0703369 0)
(-0.203459 -0.114185 0)
(-0.183526 -0.151177 0)
(-0.151772 -0.173768 0)
(-0.110053 -0.174092 0)
(-0.0641574 -0.147064 0)
(-0.0245746 -0.095014 0)
(-0.00172618 -0.0305071 0)
(-0.00129769 0.0397256 0)
(-0.0130786 0.0945799 0)
(-0.0315698 0.129103 0)
(-0.0539383 0.148083 0)
(-0.0777822 0.15543 0)
(-0.101899 0.153708 0)
(-0.125621 0.144184 0)
(-0.148481 0.127169 0)
(-0.170016 0.102459 0)
(-0.189578 0.0697575 0)
(-0.206179 0.0290752 0)
(-0.218346 -0.0188441 0)
(-0.224046 -0.0719977 0)
(-0.220722 -0.126512 0)
(-0.205612 -0.175974 0)
(-0.176584 -0.211119 0)
(-0.133717 -0.220634 0)
(-0.0818422 -0.194532 0)
(-0.0331878 -0.131172 0)
(-0.00269113 -0.0443755 0)
(-0.00124066 0.0464205 0)
(-0.012585 0.109883 0)
(-0.0302629 0.149315 0)
(-0.0514091 0.170655 0)
(-0.0736502 0.178798 0)
(-0.0959087 0.177006 0)
(-0.117731 0.166943 0)
(-0.13894 0.149065 0)
(-0.159415 0.123097 0)
(-0.178892 0.0884845 0)
(-0.196774 0.0448004 0)
(-0.211921 -0.0078092 0)
(-0.222469 -0.0680588 0)
(-0.22566 -0.132687 0)
(-0.217902 -0.19543 0)
(-0.195367 -0.245918 0)
(-0.155608 -0.269403 0)
(-0.101018 -0.249411 0)
(-0.0439961 -0.176692 0)
(-0.00415074 -0.0632055 0)
(-0.00121773 0.0528159 0)
(-0.012034 0.124346 0)
(-0.028406 0.168128 0)
(-0.0474178 0.191262 0)
(-0.0667584 0.199736 0)
(-0.0855442 0.197607 0)
(-0.103605 0.18702 0)
(-0.121112 0.168642 0)
(-0.138351 0.142191 0)
(-0.155534 0.106902 0)
(-0.172604 0.0619254 0)
(-0.189008 0.006738 0)
(-0.203387 -0.0583058 0)
(-0.213238 -0.131067 0)
(-0.214649 -0.206273 0)
(-0.202369 -0.273575 0)
(-0.17106 -0.31566 0)
(-0.119192 -0.308802 0)
(-0.0567459 -0.231809 0)
(-0.00630284 -0.0883434 0)
(-0.00134737 0.0590377 0)
(-0.0119976 0.137831 0)
(-0.0268686 0.18493 0)
(-0.0429476 0.208804 0)
(-0.0580535 0.216736 0)
(-0.0716399 0.213693 0)
(-0.0839374 0.202357 0)
(-0.0955346 0.183661 0)
(-0.107167 0.157381 0)
(-0.119557 0.122625 0)
(-0.133257 0.0782045 0)
(-0.148434 0.0229756 0)
(-0.164543 -0.0436986 0)
(-0.179858 -0.121166 0)
(-0.190856 -0.205974 0)
(-0.191635 -0.289279 0)
(-0.174274 -0.353092 0)
(-0.132363 -0.367268 0)
(-0.0703732 -0.294941 0)
(-0.00936949 -0.121108 0)
(-0.00184489 0.0656568 0)
(-0.0134298 0.150692 0)
(-0.0270028 0.199371 0)
(-0.0394606 0.222232 0)
(-0.0489363 0.228239 0)
(-0.0555016 0.223365 0)
(-0.0599814 0.210827 0)
(-0.0634696 0.191812 0)
(-0.0671633 0.166188 0)
(-0.0722706 0.133017 0)
(-0.0799169 0.0908988 0)
(-0.0910005 0.0382323 0)
(-0.10593 -0.0264957 0)
(-0.124152 -0.104151 0)
(-0.143333 -0.193656 0)
(-0.158115 -0.289182 0)
(-0.159136 -0.374795 0)
(-0.135171 -0.416882 0)
(-0.0825229 -0.361654 0)
(-0.0135053 -0.162326 0)
(-0.00308246 0.0739817 0)
(-0.0178138 0.163969 0)
(-0.0306256 0.211362 0)
(-0.0386298 0.230474 0)
(-0.0407612 0.232573 0)
(-0.0382173 0.224652 0)
(-0.0326983 0.21031 0)
(-0.0259018 0.190873 0)
(-0.0194728 0.166254 0)
(-0.0150221 0.135507 0)
(-0.0141315 0.0971514 0)
(-0.0183122 0.04935 0)
(-0.0288681 -0.00996754 0)
(-0.0465642 -0.0828696 0)
(-0.0708617 -0.170659 0)
(-0.098278 -0.271562 0)
(-0.119941 -0.374729 0)
(-0.121238 -0.448133 0)
(-0.0890427 -0.423991 0)
(-0.0184882 -0.211529 0)
(-0.00557705 0.0865551 0)
(-0.0271496 0.179489 0)
(-0.0394633 0.220718 0)
(-0.0411105 0.23197 0)
(-0.0330716 0.227576 0)
(-0.0185214 0.215242 0)
(-0.000363417 0.19854 0)
(0.0190417 0.178655 0)
(0.0376672 0.155403 0)
(0.0536303 0.12781 0)
(0.0650632 0.0944057 0)
(0.0700412 0.0533423 0)
(0.0665759 0.00239463 0)
(0.0527412 -0.0611095 0)
(0.0271388 -0.140214 0)
(-0.00961031 -0.237267 0)
(-0.0514408 -0.348961 0)
(-0.0832699 -0.45138 0)
(-0.0834938 -0.470938 0)
(-0.0231157 -0.266586 0)
(-0.00989333 0.108724 0)
(-0.0429915 0.199564 0)
(-0.0522402 0.225691 0)
(-0.0418131 0.223204 0)
(-0.0179016 0.209475 0)
(0.0132318 0.191724 0)
(0.0474149 0.172638 0)
(0.0818182 0.152779 0)
(0.114277 0.13163 0)
(0.142889 0.108122 0)
(0.165747 0.0808574 0)
(0.180771 0.0481657 0)
(0.185587 0.00803397 0)
(0.177485 -0.042144 0)
(0.153515 -0.106052 0)
(0.111303 -0.18898 0)
(0.0521594 -0.295894 0)
(-0.012632 -0.417651 0)
(-0.056813 -0.488855 0)
(-0.0246623 -0.323951 0)
(-0.0178046 0.151697 0)
(-0.0612959 0.223644 0)
(-0.0522757 0.217655 0)
(-0.0143814 0.194915 0)
(0.035376 0.171027 0)
(0.088554 0.149042 0)
(0.141172 0.129353 0)
(0.190946 0.111366 0)
(0.236283 0.0940389 0)
(0.275781 0.0761861 0)
(0.307906 0.0565688 0)
(0.330789 0.0338578 0)
(0.342047 0.00653143 0)
(0.338681 -0.0273966 0)
(0.316879 -0.071086 0)
(0.27205 -0.13047 0)
(0.199997 -0.216451 0)
(0.102894 -0.338328 0)
(0.00430279 -0.456759 0)
(-0.0159739 -0.369285 0)
(-0.0242128 0.20829 0)
(-0.0378975 0.230382 0)
(0.0372884 0.176542 0)
(0.12506 0.136848 0)
(0.205812 0.109042 0)
(0.277966 0.0881928 0)
(0.342192 0.0720989 0)
(0.398782 0.05917 0)
(0.447787 0.0480226 0)
(0.488977 0.0375237 0)
(0.521683 0.026727 0)
(0.544669 0.014782 0)
(0.556048 0.000813002 0)
(0.553161 -0.016253 0)
(0.53219 -0.0382541 0)
(0.487663 -0.0691282 0)
(0.411091 -0.119092 0)
(0.29085 -0.209353 0)
(0.133109 -0.33829 0)
(0.0387603 -0.340357 0)
(0.241892 0.10914 0)
(0.313476 0.0971272 0)
(0.444351 0.0569717 0)
(0.549657 0.0351056 0)
(0.624075 0.0237314 0)
(0.679598 0.0166999 0)
(0.723453 0.0119714 0)
(0.758742 0.00868885 0)
(0.787019 0.0062546 0)
(0.809083 0.00423571 0)
(0.825112 0.00233662 0)
(0.834735 0.000349759 0)
(0.837085 -0.00190158 0)
(0.83074 -0.0045847 0)
(0.813394 -0.00802535 0)
(0.781148 -0.0128868 0)
(0.725708 -0.0212362 0)
(0.629874 -0.0380994 0)
(0.45927 -0.0855564 0)
(0.304893 -0.125699 0)
)
;

boundaryField
{
    movingWall
    {
        type            calculated;
        value           uniform (1 0 0);
    }
    fixedWalls
    {
        type            calculated;
        value           uniform (0 0 0);
    }
    frontAndBack
    {
        type            empty;
    }
}


// ************************************************************************* //
