/*--------------------------------*- C++ -*----------------------------------*\
  =========                 |
  \\      /  F ield         | OpenFOAM: The Open Source CFD Toolbox
   \\    /   O peration     | Website:  https://openfoam.org
    \\  /    A nd           | Version:  13
     \\/     M anipulation  |
\*---------------------------------------------------------------------------*/
FoamFile
{
    format      ascii;
    class       surfaceScalarField;
    location    "34";
    object      phi;
}
// * * * * * * * * * * * * * * * * * * * * * * * * * * * * * * * * * * * * * //

dimensions      [0 3 -1 0 0 0 0];

internalField   nonuniform List<scalar> 
760
(
4.44398e-06
-4.44411e-06
-3.88826e-05
4.33259e-05
-0.000131134
9.22518e-05
-0.000256462
0.000125329
-0.000399015
0.000142555
-0.000545469
0.000146454
-0.000684011
0.000138544
-0.000802979
0.000118968
-0.0008903
8.7319e-05
-0.000934172
4.38712e-05
-0.000924965
-9.20652e-06
-0.000857968
-6.69978e-05
-0.000736175
-0.000121791
-0.000572179
-0.000163994
-0.000388003
-0.000184177
-0.000212076
-0.000175928
-7.33615e-05
-0.000138714
6.46594e-06
-7.98265e-05
2.24025e-05
-1.59363e-05
2.24035e-05
-4.7106e-05
4.26627e-05
-0.000208657
0.000204877
-0.000471353
0.000354949
-0.000802731
0.000456707
-0.00116866
0.000508484
-0.00153774
0.000515535
-0.00188063
0.000481433
-0.0021686
0.000406945
-0.00237345
0.000292168
-0.00246949
0.000139903
-0.00243754
-4.115e-05
-0.00227008
-0.000234451
-0.00197621
-0.000415666
-0.00158461
-0.000555595
-0.00114284
-0.00062594
-0.000711354
-0.000607416
-0.000351858
-0.000498211
-0.0001116
-0.000320085
-6.11468e-06
-0.000121418
1.62897e-05
-0.000111297
0.00015396
-0.000403486
0.000497065
-0.000830658
0.000782122
-0.00134398
0.000970027
-0.00189672
0.00106123
-0.00244559
0.00106441
-0.00294953
0.000985367
-0.00336844
0.000825855
-0.00366379
0.000587513
-0.00380142
0.000277533
-0.00375645
-8.61078e-05
-0.0035193
-0.000471594
-0.00310149
-0.000833473
-0.0025396
-0.00111749
-0.00189522
-0.00127032
-0.00124871
-0.00125392
-0.000685478
-0.00106145
-0.000275842
-0.000729718
-5.34301e-05
-0.000343827
-3.71413e-05
-0.000172363
0.000326324
-0.000590641
0.000915342
-0.00117309
0.00136457
-0.00185209
0.00164903
-0.00256988
0.00177901
-0.00327502
0.00176956
-0.00391919
0.00162954
-0.0044554
0.00136206
-0.00483845
0.000970557
-0.00502784
0.000466937
-0.00499279
-0.000121157
-0.00471846
-0.000745923
-0.00421285
-0.00133909
-0.00351269
-0.00181764
-0.00268625
-0.00209677
-0.00182953
-0.00211065
-0.00105271
-0.00183827
-0.000456349
-0.00132608
-0.000103386
-0.000696792
-0.000140527
-0.000226748
0.00055307
-0.000759073
0.00144766
-0.00148227
0.00208776
-0.00231047
0.00247724
-0.00317635
0.00264489
-0.0040231
0.0026163
-0.0047986
0.00240505
-0.00545228
0.00201574
-0.00593462
0.00145291
-0.00619937
0.00073169
-0.00620783
-0.000112689
-0.00593519
-0.00101857
-0.00537876
-0.00189552
-0.00456716
-0.00262924
-0.00356824
-0.00309568
-0.00249094
-0.00318795
-0.00147464
-0.00285458
-0.000661622
-0.00213909
-0.000157829
-0.00120059
-0.000298356
-0.000272685
0.000825754
-0.00090236
0.00207733
-0.00174672
0.00293212
-0.00270441
0.00343493
-0.00370073
0.00364121
-0.00467609
0.00359165
-0.00557757
0.00330653
-0.00635382
0.00279199
-0.00695298
0.00205208
-0.00732332
0.00110203
-0.00741633
-1.96808e-05
-0.00719245
-0.00124245
-0.00663094
-0.00245704
-0.00574282
-0.00351735
-0.00458612
-0.00425239
-0.00327702
-0.00449705
-0.0019869
-0.0041447
-0.000913317
-0.00321268
-0.000224289
-0.00188961
-0.000522645
-0.000308347
0.0011341
-0.00101445
0.00278344
-0.00195507
0.00387273
-0.00301718
0.00449704
-0.00412136
0.00474539
-0.00520781
0.00467811
-0.00622563
0.00432435
-0.00712553
0.00369189
-0.00785568
0.00278223
-0.00836021
0.00160656
-0.0085802
0.000200312
-0.00845873
-0.00136392
-0.00795046
-0.00296531
-0.00703869
-0.00442913
-0.00575841
-0.00553267
-0.00422081
-0.00603465
-0.00262534
-0.00574017
-0.00123695
-0.00460107
-0.000312205
-0.00281435
-0.00083485
-0.000331871
0.00146597
-0.00108938
0.00354094
-0.00209564
0.004879
-0.00322995
0.00563135
-0.00441081
0.00592625
-0.00558068
0.00584798
-0.00669339
0.00543705
-0.00770482
0.00470331
-0.00856654
0.00364395
-0.00922174
0.00226177
-0.00960377
0.000582338
-0.00963853
-0.00132915
-0.0092531
-0.00335073
-0.00839385
-0.00528838
-0.00705649
-0.00687003
-0.00532622
-0.00776492
-0.00341427
-0.00765212
-0.00165694
-0.0063584
-0.000431931
-0.00403937
-0.00126678
-0.000342018
0.00180799
-0.00112272
0.00432165
-0.0021586
0.00591487
-0.00332477
0.00679752
-0.00453992
0.00714139
-0.00575087
0.00705893
-0.00691885
0.00660502
-0.00800838
0.00579285
-0.0089789
0.00461447
-0.00977816
0.00306103
-0.0103377
0.00114193
-0.0105718
-0.00109507
-0.010382
-0.00354055
-0.00967284
-0.00599755
-0.00838465
-0.00815823
-0.00654802
-0.00960155
-0.00435269
-0.00984745
-0.00219153
-0.00851956
-0.000594358
-0.00563654
-0.00186114
-0.000339264
0.00214725
-0.00111427
0.00509665
-0.00214008
0.00694068
-0.0032901
0.00794754
-0.00448497
0.00833626
-0.00567783
0.00825179
-0.00683979
0.00776699
-0.00794767
0.00690073
-0.00897392
0.00564073
-0.00987813
0.00396524
-0.0105994
0.00186321
-0.0110505
-0.000643974
-0.011117
-0.00347407
-0.0106645
-0.00645001
-0.00956795
-0.00925482
-0.00777269
-0.0113968
-0.00539699
-0.0122232
-0.00284491
-0.0110716
-0.000810321
-0.00767113
-0.00267146
-0.000327282
0.00247453
-0.0010715
0.00584087
-0.00204752
0.00791669
-0.00312796
0.00902798
-0.0042372
0.0094455
-0.00533689
0.00935148
-0.00641062
0.00884073
-0.00745093
0.00794104
-0.00844842
0.00663822
-0.00938205
0.00489887
-0.0102095
0.00269065
-0.0108556
2.12982e-06
-0.011207
-0.00312265
-0.0111037
-0.00655333
-0.0103578
-0.0100007
-0.00880779
-0.0129468
-0.00644233
-0.0145886
-0.00359484
-0.0139191
-0.00108892
-0.0101771
-0.00376038
-0.000314878
0.00278941
-0.0010138
0.00653979
-0.00190539
0.00880828
-0.00286106
0.00998364
-0.00381181
0.0103962
-0.00473136
0.010271
-0.00561902
0.00972838
-0.00648607
0.00880809
-0.00734515
0.0074973
-0.00820058
0.00575429
-0.00903766
0.00352773
-0.00981086
0.000775329
-0.0104239
-0.00250965
-0.0107182
-0.00625895
-0.0104637
-0.0102553
-0.00939081
-0.0140197
-0.00731049
-0.0166689
-0.0043761
-0.0168535
-0.0014335
-0.0131197
-0.00519388
-0.000318727
0.00310814
-0.000977169
0.00719823
-0.00176024
0.00959134
-0.00253737
0.0107608
-0.00325264
0.0111115
-0.00389855
0.0109169
-0.00449468
0.0103245
-0.00507381
0.00938721
-0.00567249
0.00809598
-0.00632301
0.00640482
-0.00704413
0.00424885
-0.00782807
0.00155926
-0.00861988
-0.00171783
-0.00929096
-0.00558786
-0.00960782
-0.00993843
-0.00922332
-0.0144042
-0.00775427
-0.018138
-0.00506422
-0.0195436
-0.00183355
-0.0163503
-0.00702742
-0.000367847
0.00347598
-0.00101961
0.00784999
-0.00168286
0.0102546
-0.00222809
0.011306
-0.00262653
0.01151
-0.00290137
0.0111918
-0.00309929
0.0105224
-0.00327697
0.00956489
-0.00349449
0.0083135
-0.00381056
0.0067209
-0.00427663
0.00471492
-0.00492686
0.00220949
-0.00575986
-0.000884823
-0.00670688
-0.00464084
-0.00758128
-0.00906404
-0.00802023
-0.0139652
-0.00748115
-0.0186771
-0.0054663
-0.0215584
-0.0022505
-0.0195661
-0.00927793
-0.000510349
0.00398633
-0.00122471
0.00856435
-0.00176097
0.0107909
-0.00200806
0.0115531
-0.00199332
0.0114952
-0.00178989
0.0109884
-0.00148041
0.010213
-0.00114745
0.00923192
-0.000872203
0.00803825
-0.000734836
0.00658353
-0.000813506
0.00479358
-0.00118004
0.00257602
-0.00188837
-0.00017648
-0.00294757
-0.00358164
-0.00426497
-0.00774664
-0.00554579
-0.0126844
-0.00618096
-0.0180419
-0.00531757
-0.0224218
-0.00259506
-0.0222886
-0.011873
-0.000815615
0.00480195
-0.00168824
0.00943698
-0.00205363
0.0111562
-0.00188011
0.0113796
-0.00130817
0.0109233
-0.000488022
0.0101682
0.000452878
0.00927205
0.00140633
0.00827847
0.00227491
0.00716968
0.00296457
0.00589387
0.00337963
0.00437852
0.00342082
0.00253484
0.00298805
0.000256295
0.00199536
-0.00258895
0.000415692
-0.00616698
-0.00160495
-0.0106638
-0.00353293
-0.0161139
-0.00427295
-0.0216818
-0.0026933
-0.0238683
-0.0145663
-0.00135086
0.00615281
-0.00242519
0.0105113
-0.0023973
0.0111283
-0.0015133
0.0104956
-0.000128534
0.00953852
0.00150638
0.00853329
0.00322251
0.00755591
0.00489657
0.00660441
0.00642725
0.005639
0.00771916
0.00460197
0.00867184
0.00342584
0.00917255
0.00203413
0.00909174
0.0003371
0.00828546
-0.00178266
0.00661442
-0.00449594
0.00402975
-0.0080791
0.000827857
-0.012912
-0.00189438
-0.0189596
-0.00225966
-0.023503
-0.016826
-0.00213561
0.00828842
-0.00292411
0.0112998
-0.00169279
0.00989703
0.000524636
0.00827813
0.0031005
0.00696265
0.00574475
0.00588905
0.00830462
0.00499604
0.0106837
0.00422534
0.0128077
0.00351503
0.0146032
0.00280643
0.0159845
0.00204458
0.0168444
0.00117421
0.0170458
0.000135728
0.0164165
-0.0011534
0.0147409
-0.00282028
0.0117841
-0.00512234
0.0074554
-0.00858331
0.00244225
-0.0139464
-0.000886249
-0.0201745
-0.0177122
-0.00248682
0.0107752
-1.17039e-05
0.00882469
0.00417695
0.00570837
0.00832419
0.00413089
0.0121153
0.00317158
0.0155195
0.00248482
0.0185381
0.00197745
0.0211769
0.00158654
0.0234326
0.00125928
0.0252827
0.00095633
0.0266802
0.000647135
0.0275473
0.000307068
0.0277709
-8.78301e-05
0.027191
-0.000573473
0.0255699
-0.00119924
0.0225461
-0.00209853
0.0176174
-0.0036546
0.0104001
-0.00672907
0.00247421
-0.0122487
-0.015238
0.0107752
0.0195999
0.0253083
0.0294392
0.0326108
0.0350956
0.0370731
0.0386596
0.0399189
0.0408752
0.0415223
0.0418294
0.0417416
0.0411681
0.0399689
0.0378703
0.0342157
0.0274867
0.015238
)
;

boundaryField
{
    movingWall
    {
        type            calculated;
        value           uniform 0;
    }
    fixedWalls
    {
        type            calculated;
        value           uniform 0;
    }
    frontAndBack
    {
        type            empty;
    }
}


// ************************************************************************* //
