/*--------------------------------*- C++ -*----------------------------------*\
  =========                 |
  \\      /  F ield         | OpenFOAM: The Open Source CFD Toolbox
   \\    /   O peration     | Website:  https://openfoam.org
    \\  /    A nd           | Version:  13
     \\/     M anipulation  |
\*---------------------------------------------------------------------------*/
FoamFile
{
    format      ascii;
    class       surfaceScalarField;
    location    "34";
    object      phi_0;
}
// * * * * * * * * * * * * * * * * * * * * * * * * * * * * * * * * * * * * * //

dimensions      [0 3 -1 0 0 0 0];

internalField   nonuniform List<scalar> 
760
(
4.40129e-06
-4.40129e-06
-3.88843e-05
4.32859e-05
-0.000131008
9.21235e-05
-0.000256148
0.000125141
-0.000398478
0.00014233
-0.000544691
0.000146213
-0.000682998
0.000138306
-0.000801759
0.000118761
-0.000888929
8.71705e-05
-0.000932738
4.38093e-05
-0.000923578
-9.15962e-06
-0.00085674
-6.68368e-05
-0.000735206
-0.000121534
-0.000571529
-0.000163677
-0.000387673
-0.000183855
-0.000212009
-0.000175663
-7.34542e-05
-0.000138555
6.33473e-06
-7.9789e-05
2.2327e-05
-1.59918e-05
2.23268e-05
-4.70466e-05
4.2645e-05
-0.000208328
0.000204567
-0.000470587
0.000354383
-0.000801407
0.00045596
-0.00116672
0.000507639
-0.00153517
0.000514667
-0.00187748
0.000480619
-0.00216499
0.00040627
-0.00236954
0.000291722
-0.00246549
0.000139765
-0.00243372
-4.09313e-05
-0.00226668
-0.000233873
-0.00197342
-0.000414789
-0.00158256
-0.00055454
-0.00114154
-0.000624869
-0.000710702
-0.000606504
-0.000351663
-0.000497594
-0.000111632
-0.000319819
-6.18422e-06
-0.00012144
1.6142e-05
-0.000111093
0.000153739
-0.000402752
0.000496227
-0.000829157
0.000780788
-0.00134156
0.000968368
-0.00189333
0.00105941
-0.00244127
0.0010626
-0.00294436
0.000983713
-0.00336262
0.000824528
-0.00365757
0.000586678
-0.00379513
0.000277327
-0.00375045
-8.56107e-05
-0.00351391
-0.000470407
-0.00309699
-0.000831712
-0.00253616
-0.00111537
-0.00189287
-0.00126816
-0.00124735
-0.00125203
-0.000684864
-0.00106008
-0.000275684
-0.000728999
-5.34491e-05
-0.000343677
-3.73071e-05
-0.000172012
0.00032575
-0.000589493
0.000913708
-0.00117086
0.00136216
-0.00184864
0.00164614
-0.00256517
0.00177594
-0.00326911
0.00176655
-0.00391226
0.00162686
-0.00444768
0.00135996
-0.00483027
0.00096927
-0.00501961
0.000466661
-0.00498489
-0.000120322
-0.00471129
-0.000744008
-0.00420673
-0.00133627
-0.00350786
-0.00181425
-0.00268278
-0.00209324
-0.00182734
-0.00210746
-0.00105158
-0.00183584
-0.000455941
-0.00132464
-0.000103333
-0.000696286
-0.00014064
-0.000226271
0.000552022
-0.000757581
0.00144502
-0.00147944
0.00208402
-0.00230619
0.00247289
-0.0031706
0.00264035
-0.00401599
0.00261193
-0.00479033
0.0024012
-0.00544314
0.00201276
-0.00592498
0.00145111
-0.00618963
0.000731314
-0.00619842
-0.000111525
-0.00592653
-0.00101591
-0.00537121
-0.00189159
-0.00456101
-0.00262445
-0.00356365
-0.0030906
-0.0024879
-0.00318321
-0.00147295
-0.00285079
-0.000660932
-0.00213666
-0.000157696
-0.00119952
-0.000298336
-0.000272127
0.000824148
-0.000900654
0.00207355
-0.00174353
0.0029269
-0.00269963
0.00342899
-0.00369438
0.0036351
-0.0046683
0.00358585
-0.00556857
0.00330147
-0.0063439
0.00278809
-0.00694251
0.00204972
-0.00731269
0.00110149
-0.00740595
-1.82623e-05
-0.00718274
-0.00123912
-0.00662227
-0.00245205
-0.00573555
-0.00351117
-0.00458049
-0.00424566
-0.00327313
-0.00449057
-0.00198462
-0.00413929
-0.000912317
-0.00320896
-0.000224068
-0.00188777
-0.000522404
-0.00030777
0.00113192
-0.0010127
0.00277848
-0.00195183
0.00386603
-0.00301235
0.0044895
-0.00411497
0.00473772
-0.00520002
0.00467089
-0.00621666
0.0043181
-0.00711565
0.00368708
-0.00784522
0.00277929
-0.00834952
0.00160579
-0.00856964
0.000201857
-0.00844866
-0.0013601
-0.00794126
-0.00295945
-0.00703072
-0.00442171
-0.005752
-0.00552438
-0.00421618
-0.0060264
-0.0026225
-0.00573297
-0.00123563
-0.00459583
-0.000311887
-0.00281152
-0.000834292
-0.00033135
0.00146327
-0.00108779
0.00353492
-0.0020927
0.00487093
-0.00322557
0.00562237
-0.00440503
0.00591719
-0.00557365
0.00583951
-0.0066853
0.00542976
-0.00769593
0.00469771
-0.00855711
0.00364047
-0.00921205
0.00226073
-0.00959408
0.000583886
-0.00962912
-0.00132505
-0.00924427
-0.0033443
-0.00838593
-0.00528005
-0.00704983
-0.00686048
-0.00532116
-0.00775507
-0.00341099
-0.00764314
-0.00165534
-0.00635148
-0.000431509
-0.00403535
-0.0012658
-0.000341629
0.0018049
-0.00112151
0.0043148
-0.00215632
0.00590573
-0.00332134
0.00678739
-0.00453539
0.00713123
-0.00574538
0.0070495
-0.00691256
0.00659694
-0.00800151
0.00578666
-0.00897164
0.0046106
-0.00977067
0.00305977
-0.0103302
0.0011434
-0.0105643
-0.0010909
-0.0103747
-0.00353389
-0.00966602
-0.00598878
-0.00837858
-0.00814792
-0.00654309
-0.00959056
-0.00434926
-0.00983697
-0.00218972
-0.00851102
-0.000593835
-0.00563123
-0.00185964
-0.00033907
0.00214397
-0.00111361
0.00508933
-0.00213877
0.0069309
-0.00328808
0.0079367
-0.00448228
0.00832543
-0.00567458
0.0082418
-0.00683613
0.00775849
-0.00794375
0.00689427
-0.00896986
0.00563671
-0.009874
0.00396391
-0.0105952
0.00186463
-0.0110462
-0.000639888
-0.0111126
-0.00346752
-0.0106601
-0.00644133
-0.00956354
-0.00924444
-0.00776869
-0.0113854
-0.00539387
-0.0122118
-0.00284307
-0.0110618
-0.000809724
-0.00766458
-0.00266936
-0.000327327
0.00247129
-0.00107152
0.00583352
-0.00204741
0.00790679
-0.00312769
0.00901698
-0.00423678
0.00943453
-0.0053364
0.00934142
-0.00641018
0.00883227
-0.00745061
0.00793471
-0.00844828
0.00663438
-0.00938207
0.00489769
-0.0102096
0.00269212
-0.0108555
6.07983e-06
-0.0112066
-0.00311648
-0.0111027
-0.00654523
-0.0103561
-0.009991
-0.00880563
-0.0129359
-0.00644016
-0.0145773
-0.00359329
-0.0139087
-0.00108831
-0.0101696
-0.00375767
-0.000315176
0.00278647
-0.00101455
0.00653289
-0.00190659
0.00879884
-0.00286269
0.00997307
-0.00381385
0.0103857
-0.00473385
0.0102614
-0.005622
0.00972041
-0.00648956
0.00880227
-0.00734912
0.00749394
-0.00820492
0.0057535
-0.00904219
0.00352938
-0.00981527
0.000779162
-0.0104278
-0.00250397
-0.0107212
-0.00625176
-0.0104654
-0.0102468
-0.00939125
-0.0140101
-0.00730991
-0.0166586
-0.00437519
-0.0168434
-0.00143298
-0.0131118
-0.00519066
-0.00031926
0.00310573
-0.000978613
0.00719225
-0.0017627
0.00958293
-0.00254083
0.0107512
-0.00325706
0.0111019
-0.00390387
0.0109082
-0.00450085
0.0103174
-0.00508075
0.00938217
-0.00568009
0.00809328
-0.00633109
0.0064045
-0.00705245
0.00425074
-0.00783628
0.001563
-0.00862757
-0.00171269
-0.00929763
-0.0055817
-0.00961297
-0.00993148
-0.0092266
-0.0143965
-0.00775569
-0.0181295
-0.00506432
-0.0195348
-0.00183325
-0.0163428
-0.00702391
-0.000368564
0.00347429
-0.00102162
0.0078453
-0.00168638
0.0102477
-0.00223311
0.0112979
-0.00263293
0.0115018
-0.00290903
0.0111843
-0.00310802
0.0105164
-0.00328656
0.00956071
-0.00350472
0.00831144
-0.0038212
0.00672097
-0.0042874
0.00471693
-0.00493744
0.00221304
-0.00576992
-0.000880214
-0.00671597
-0.00463565
-0.00758887
-0.00905857
-0.00802584
-0.0139595
-0.00748449
-0.0186708
-0.00546757
-0.0215517
-0.00225054
-0.0195599
-0.00927445
-0.000511166
0.00398546
-0.00122705
0.00856118
-0.00176515
0.0107858
-0.00201408
0.0115469
-0.00200104
0.0114887
-0.00179905
0.0109823
-0.00149071
0.010208
-0.00115856
0.00922856
-0.00088379
0.00803667
-0.000746582
0.00658377
-0.000825125
0.00479547
-0.00119128
0.0025792
-0.00189901
-0.000172485
-0.00295732
-0.00357734
-0.00427345
-0.00774244
-0.00555254
-0.0126804
-0.00618553
-0.0180379
-0.00531982
-0.0224174
-0.00259553
-0.0222842
-0.01187
-0.000816395
0.00480185
-0.00169056
0.00943535
-0.00205787
0.0111531
-0.00188632
0.0113753
-0.0013162
0.0109186
-0.000497544
0.0101637
0.000442244
0.00926825
0.00139501
0.00827579
0.0022633
0.00716838
0.00295306
0.00589401
0.00336852
0.00438001
0.00341032
0.0025374
0.00297831
0.000259521
0.00198651
-0.00258553
0.000407885
-0.00616381
-0.00161144
-0.0106611
-0.00353771
-0.0161116
-0.00427568
-0.0216794
-0.00269417
-0.0238657
-0.0145641
-0.0013514
0.00615325
-0.00242698
0.0105109
-0.00240076
0.0111269
-0.00151858
0.0104931
-0.000135536
0.00953554
0.00149792
0.00853022
0.00321298
0.00755319
0.00488639
0.00660239
0.00641686
0.00563791
0.00770895
0.00460192
0.00866215
0.00342681
0.00916362
0.00203593
0.00908373
0.000339417
0.00827839
-0.0017802
0.00660829
-0.00449372
0.00402462
-0.00807739
0.000823892
-0.0129109
-0.00189691
-0.0189586
-0.0022606
-0.023502
-0.0168248
-0.0021357
0.00828895
-0.00292487
0.0113001
-0.00169465
0.00989667
0.000521406
0.00827708
0.00309584
0.0069611
0.00573875
0.00588731
0.00829754
0.0049944
0.0106759
0.00422406
0.0127995
0.00351427
0.0145951
0.00280634
0.0159768
0.00204515
0.0168374
0.0011753
0.0170397
0.000137114
0.0164115
-0.00115197
0.0147368
-0.00281905
0.0117809
-0.00512147
0.00745292
-0.0085829
0.00244056
-0.0139463
-0.000887027
-0.0201744
-0.0177118
-0.00248655
0.0107755
-1.14765e-05
0.00882501
0.0041768
0.00570839
0.00832331
0.00413057
0.0121134
0.00317102
0.0155165
0.00248417
0.0185341
0.00197684
0.0211721
0.00158609
0.0234273
0.00125906
0.0252773
0.00095638
0.026675
0.000647418
0.0275428
0.000307523
0.0277672
-8.72691e-05
0.0271881
-0.000572936
0.0255679
-0.00119883
0.0225448
-0.00209833
0.0176165
-0.00365463
0.0103994
-0.0067292
0.00247382
-0.0122488
-0.015238
0.0107755
0.0196005
0.0253089
0.0294395
0.0326105
0.0350947
0.0370715
0.0386576
0.0399166
0.040873
0.0415204
0.041828
0.0417407
0.0411678
0.0399689
0.0378706
0.034216
0.0274868
0.015238
)
;

boundaryField
{
    movingWall
    {
        type            calculated;
        value           uniform 0;
    }
    fixedWalls
    {
        type            calculated;
        value           uniform 0;
    }
    frontAndBack
    {
        type            empty;
    }
}


// ************************************************************************* //
