/*--------------------------------*- C++ -*----------------------------------*\
  =========                 |
  \\      /  F ield         | OpenFOAM: The Open Source CFD Toolbox
   \\    /   O peration     | Website:  https://openfoam.org
    \\  /    A nd           | Version:  13
     \\/     M anipulation  |
\*---------------------------------------------------------------------------*/
FoamFile
{
    format      ascii;
    class       volScalarField;
    location    "37";
    object      p;
}
// * * * * * * * * * * * * * * * * * * * * * * * * * * * * * * * * * * * * * //

dimensions      [0 2 -2 0 0 0 0];

internalField   nonuniform List<scalar> 
400
(
8.29894e-10
-0.000526916
-0.00116912
-0.00166541
-0.00189634
-0.00181282
-0.00139065
-0.000619232
0.000492109
0.0018991
0.0035076
0.00516739
0.00668307
0.00784551
0.00848185
0.00851183
0.00799086
0.00712409
0.00624216
0.00569027
0.000533914
-1.12248e-05
-0.000577877
-0.000974101
-0.00114699
-0.00106993
-0.00072205
-8.86164e-05
0.000830421
0.00200576
0.00336397
0.00478039
0.00608647
0.00709786
0.00765984
0.00769916
0.0072622
0.00652008
0.00573302
0.00517148
0.00120125
0.00051864
-8.01086e-05
-0.000441898
-0.000599765
-0.000561283
-0.000311492
0.000171845
0.000904792
0.00187964
0.00304668
0.00430261
0.00549362
0.0064398
0.00698021
0.00702717
0.00660683
0.00585853
0.00498689
0.00425527
0.00168001
0.000799623
8.41965e-05
-0.000320664
-0.000525549
-0.000570806
-0.000445131
-0.000114142
0.000460412
0.00129775
0.00237336
0.0036
0.00482413
0.00584674
0.00647067
0.00656451
0.00611627
0.00523828
0.00411606
0.00308328
0.00171597
0.000635444
-0.000222696
-0.000714413
-0.00101634
-0.00119399
-0.0012337
-0.00108278
-0.000673971
4.61441e-05
0.00108475
0.00237453
0.003759
0.00500686
0.00585978
0.00610951
0.0056754
0.00463043
0.00316097
0.00173134
0.00109864
-0.000160393
-0.00116282
-0.00177083
-0.00221682
-0.00258347
-0.00284845
-0.00293446
-0.00273737
-0.00215897
-0.00114707
0.000265498
0.00192798
0.00357387
0.00486137
0.0054636
0.00518112
0.00400945
0.00213327
0.000208683
-0.000349102
-0.00175455
-0.00289464
-0.00364575
-0.00428697
-0.00491197
-0.00548556
-0.00590097
-0.00600913
-0.00565301
-0.00471381
-0.00316695
-0.00112912
0.0011094
0.00310827
0.00437218
0.00450604
0.0033499
0.00104765
-0.00148307
-0.00276373
-0.00427729
-0.00554445
-0.00646498
-0.0073569
-0.008322
-0.00931171
-0.0101881
-0.0107506
-0.0107688
-0.0100312
-0.00841389
-0.00595778
-0.00293959
0.000107709
0.00247324
0.0034617
0.00262169
-4.70347e-05
-0.00329632
-0.00622938
-0.00780806
-0.00918621
-0.0102961
-0.0114897
-0.0128785
-0.014405
-0.015903
-0.0171184
-0.0177348
-0.0174206
-0.0159062
-0.0130924
-0.00917305
-0.00472864
-0.00070524
0.00178478
0.00179331
-0.00103089
-0.00507623
-0.0107681
-0.0123647
-0.0138251
-0.0151224
-0.0166432
-0.0185168
-0.0206864
-0.0229662
-0.0250521
-0.0265368
-0.0269471
-0.0258238
-0.022856
-0.0180535
-0.0119441
-0.0056644
-0.00083081
0.00085232
-0.0016629
-0.0064738
-0.01634
-0.0179017
-0.0193893
-0.0208234
-0.0226377
-0.0249964
-0.0278587
-0.0310312
-0.0341697
-0.0367792
-0.0382382
-0.0378674
-0.0350889
-0.0296107
-0.021758
-0.0127189
-0.00460306
-0.000122516
-0.0015029
-0.00681443
-0.0228617
-0.0243253
-0.0257353
-0.0271685
-0.0291408
-0.0318807
-0.035382
-0.039456
-0.0437285
-0.0476273
-0.0503918
-0.0511278
-0.0489236
-0.0431325
-0.0337037
-0.0216448
-0.00938933
-0.000787335
0.000221821
-0.00490191
-0.0302564
-0.0315304
-0.03267
-0.0338283
-0.0356782
-0.0385574
-0.0425112
-0.0473603
-0.0527029
-0.057897
-0.0620546
-0.0640767
-0.0627598
-0.0570365
-0.0463644
-0.031314
-0.0143105
-0.000229204
0.00485252
0.00126176
-0.038555
-0.0394658
-0.0399829
-0.0403969
-0.0416704
-0.0443053
-0.048402
-0.0537766
-0.0599849
-0.0663076
-0.0717356
-0.074988
-0.0745964
-0.0691054
-0.0574451
-0.0395594
-0.0174555
0.00338732
0.0146513
0.0148344
-0.0481
-0.0482367
-0.0474809
-0.0464161
-0.0464878
-0.0483966
-0.0522644
-0.0578569
-0.0646466
-0.0718069
-0.0781938
-0.0823497
-0.0825676
-0.0770569
-0.0642688
-0.0434737
-0.015922
0.0129759
0.0330583
0.0403536
-0.0598913
-0.0582723
-0.055032
-0.051412
-0.0495361
-0.050232
-0.0535342
-0.0590708
-0.0661633
-0.073827
-0.0807473
-0.0852706
-0.0854494
-0.0791828
-0.064507
-0.0400888
-0.00627921
0.0322936
0.0644809
0.0832661
-0.0761769
-0.070642
-0.0626068
-0.0549378
-0.0503536
-0.0494618
-0.0519908
-0.0573038
-0.0644881
-0.0723438
-0.0793452
-0.0836116
-0.0829274
-0.0748483
-0.0569721
-0.0273758
0.0145125
0.0654427
0.114344
0.150141
-0.104108
-0.0878866
-0.0699573
-0.0562606
-0.0483628
-0.045751
-0.0475257
-0.0526317
-0.059835
-0.0676841
-0.0744348
-0.0779785
-0.0758238
-0.0651234
-0.0428788
-0.00626108
0.0466818
0.115257
0.191425
0.258232
-0.175926
-0.114849
-0.0735988
-0.0518946
-0.0411867
-0.0375633
-0.0392435
-0.0446622
-0.0522174
-0.0602471
-0.0668711
-0.0698363
-0.066462
-0.0535639
-0.0274107
0.0163418
0.0826491
0.177292
0.305339
0.45262
-0.355797
-0.155214
-0.070414
-0.0427817
-0.0313529
-0.0275914
-0.0297456
-0.0359006
-0.0441218
-0.0526159
-0.0594744
-0.0624368
-0.0587732
-0.045149
-0.0172628
0.0307638
0.108357
0.233286
0.434735
0.735806
)
;

boundaryField
{
    movingWall
    {
        type            zeroGradient;
    }
    fixedWalls
    {
        type            zeroGradient;
    }
    frontAndBack
    {
        type            empty;
    }
}


// ************************************************************************* //
