/*--------------------------------*- C++ -*----------------------------------*\
  =========                 |
  \\      /  F ield         | OpenFOAM: The Open Source CFD Toolbox
   \\    /   O peration     | Website:  https://openfoam.org
    \\  /    A nd           | Version:  13
     \\/     M anipulation  |
\*---------------------------------------------------------------------------*/
FoamFile
{
    format      ascii;
    class       surfaceScalarField;
    location    "37";
    object      phi_0;
}
// * * * * * * * * * * * * * * * * * * * * * * * * * * * * * * * * * * * * * //

dimensions      [0 3 -1 0 0 0 0];

internalField   nonuniform List<scalar> 
760
(
4.51294e-06
-4.51306e-06
-3.88777e-05
4.33902e-05
-0.000131334
9.24565e-05
-0.000256964
0.000125631
-0.000399877
0.000142914
-0.000546716
0.00014684
-0.000685636
0.000138922
-0.000804937
0.0001193
-0.000892496
8.75584e-05
-0.000936469
4.39715e-05
-0.000927189
-9.27987e-06
-0.000859934
-6.72545e-05
-0.000737727
-0.000122206
-0.000573221
-0.000164504
-0.00038853
-0.000184692
-0.000212181
-0.00017635
-7.32114e-05
-0.000138969
6.67698e-06
-7.98876e-05
2.25247e-05
-1.58475e-05
2.25254e-05
-4.72014e-05
4.26889e-05
-0.000209182
0.000205371
-0.000472579
0.000355855
-0.000804852
0.000457904
-0.00117177
0.000509838
-0.00154186
0.000516926
-0.00188568
0.000482739
-0.0021744
0.000408028
-0.00237973
0.000292885
-0.00247589
0.000140127
-0.00244367
-4.14997e-05
-0.00227554
-0.000235377
-0.00198067
-0.000417073
-0.00158789
-0.000557289
-0.00114492
-0.000627658
-0.000712393
-0.000608878
-0.000352165
-0.000499198
-0.000111543
-0.000320511
-6.00152e-06
-0.000121386
1.65246e-05
-0.000111625
0.000154313
-0.000404662
0.000498407
-0.000833067
0.000784261
-0.00134785
0.000972688
-0.00190215
0.00106414
-0.00245255
0.00106732
-0.00295783
0.000988021
-0.00337779
0.000827985
-0.00367376
0.000588853
-0.00381149
0.000277865
-0.00376608
-8.69086e-05
-0.00352795
-0.000473506
-0.00310871
-0.000836303
-0.00254513
-0.00112088
-0.00189899
-0.0012738
-0.0012509
-0.00125697
-0.000686457
-0.00106364
-0.000276092
-0.000730874
-5.34005e-05
-0.000344076
-3.68767e-05
-0.000172928
0.000327242
-0.000592481
0.00091796
-0.00117667
0.00136845
-0.00185764
0.00165366
-0.00257745
0.00178395
-0.0032845
0.00177438
-0.00393033
0.00163385
-0.00446779
0.00136544
-0.00485155
0.000972617
-0.00504105
0.00046737
-0.00500545
-0.000122507
-0.00472995
-0.000749005
-0.00422264
-0.00134361
-0.00352044
-0.00182308
-0.00269181
-0.00210243
-0.00183302
-0.00211575
-0.00105451
-0.00184215
-0.000457001
-0.00132838
-0.000103471
-0.000697608
-0.000140348
-0.000227515
0.000554756
-0.000761468
0.00145191
-0.0014868
0.00209378
-0.00231736
0.00248422
-0.00318559
0.00265218
-0.00403452
0.0026233
-0.00481188
0.00241121
-0.00546694
0.00202051
-0.0059501
0.00145577
-0.006215
0.000732273
-0.00622292
-0.000114577
-0.00594908
-0.00102285
-0.00539086
-0.00190183
-0.00457701
-0.00263693
-0.0035756
-0.00310384
-0.00249582
-0.00319554
-0.00147734
-0.00286064
-0.000662726
-0.00214299
-0.000158041
-0.00120229
-0.000298389
-0.000273581
0.000828336
-0.000905102
0.00208343
-0.00175183
0.0029405
-0.00271209
0.00344448
-0.00371093
0.00365102
-0.00468859
0.00360097
-0.00559202
0.00331464
-0.00636973
0.00279822
-0.00696978
0.00205583
-0.00734038
0.00110287
-0.00743297
-2.19839e-05
-0.00720803
-0.0012478
-0.00664481
-0.00246504
-0.00575447
-0.00352728
-0.00459513
-0.00426317
-0.00328326
-0.00450741
-0.00199054
-0.00415336
-0.00091491
-0.00321863
-0.000224642
-0.00189256
-0.000523031
-0.000309272
0.00113761
-0.00101726
0.00279141
-0.00196027
0.00388352
-0.00302494
0.00450915
-0.00413161
0.00475769
-0.00522032
0.00468968
-0.00624005
0.00433436
-0.00714138
0.00369956
-0.00787246
0.00278691
-0.00837735
0.00160776
-0.00859714
0.000197801
-0.00847486
-0.00137007
-0.00796519
-0.00297471
-0.00705144
-0.00444103
-0.00576866
-0.00554595
-0.00422822
-0.00604786
-0.00262988
-0.00575169
-0.00123905
-0.00460946
-0.000312714
-0.00281889
-0.000835745
-0.000332707
0.00147031
-0.00109192
0.00355062
-0.00210036
0.00489196
-0.00323699
0.00564578
-0.0044201
0.0059408
-0.00559198
0.00586156
-0.00670636
0.00544874
-0.00771907
0.00471227
-0.00858165
0.00364948
-0.00923728
0.00226339
-0.00961929
0.000579815
-0.0096536
-0.00133577
-0.00926724
-0.00336107
-0.00840652
-0.00530175
-0.00706713
-0.00688534
-0.0053343
-0.00778068
-0.0034195
-0.00766649
-0.00165951
-0.00636946
-0.000432606
-0.00404579
-0.00126835
-0.000342645
0.00181296
-0.00112468
0.00433265
-0.00216227
0.00592955
-0.00333028
0.00681379
-0.00454719
0.0071577
-0.0057597
0.00707407
-0.00692893
0.00661797
-0.00801941
0.00580274
-0.00899055
0.00462063
-0.00979015
0.003063
-0.0103498
0.00113951
-0.0105838
-0.0011018
-0.0103936
-0.00355125
-0.00968374
-0.00601163
-0.00839435
-0.00817474
-0.0065559
-0.00961914
-0.00435817
-0.00986422
-0.00219442
-0.00853321
-0.000595192
-0.00564503
-0.00186354
-0.000339577
0.00215254
-0.00111534
0.00510841
-0.00214219
0.0069564
-0.00329334
0.00796495
-0.00448929
0.00835364
-0.00568304
0.00826782
-0.00684567
0.00778059
-0.00795396
0.00691104
-0.00898043
0.00564711
-0.00988474
0.00396731
-0.0106061
0.00186087
-0.0110573
-0.000650582
-0.011124
-0.00348459
-0.0106717
-0.00646394
-0.00957499
-0.00927143
-0.00777908
-0.0114151
-0.00540196
-0.0122413
-0.00284783
-0.0110873
-0.000811271
-0.00768158
-0.00267481
-0.000327212
0.00247975
-0.00107148
0.00585268
-0.00204769
0.00793261
-0.0031284
0.00904566
-0.00423788
0.00946312
-0.00533767
0.00936761
-0.00641134
0.00885427
-0.00745144
0.00795113
-0.00844863
0.0066443
-0.009382
0.00490067
-0.0102093
0.00268821
-0.0108557
-4.26469e-06
-0.0112077
-0.00313258
-0.0111053
-0.00656632
-0.0103605
-0.0100163
-0.00881122
-0.0129643
-0.00644579
-0.0146068
-0.00359733
-0.0139358
-0.00108988
-0.010189
-0.0037647
-0.000314401
0.00279415
-0.0010126
0.00655088
-0.00190346
0.00882346
-0.00285845
0.0100006
-0.00380853
0.0104132
-0.00472737
0.0102865
-0.00561425
0.00974114
-0.00648049
0.00881737
-0.0073388
0.00750262
-0.00819362
0.00575549
-0.00903041
0.003525
-0.00980379
0.000769115
-0.0104176
-0.00251878
-0.0107134
-0.00627049
-0.0104608
-0.0102689
-0.00939008
-0.014035
-0.0073114
-0.0166855
-0.00437753
-0.0168697
-0.00143432
-0.0131322
-0.00519902
-0.000317871
0.00311202
-0.000974855
0.00720787
-0.00175628
0.00960488
-0.0025318
0.0107762
-0.00324555
0.0111269
-0.00389002
0.0109309
-0.00448479
0.0103359
-0.00506268
0.00939527
-0.00566032
0.00810025
-0.00631007
0.00640525
-0.00703082
0.00424575
-0.00781491
0.00155321
-0.00860757
-0.00172613
-0.00928028
-0.00559777
-0.00959957
-0.00994958
-0.00921805
-0.0144165
-0.00775198
-0.0181515
-0.00506404
-0.0195576
-0.00183402
-0.0163623
-0.00703304
-0.000366692
0.00347871
-0.00101638
0.00785756
-0.00167721
0.0102657
-0.00222004
0.011319
-0.00261624
0.0115231
-0.0028891
0.0112038
-0.00308531
0.0105321
-0.0032616
0.00957156
-0.0034781
0.00831675
-0.00379355
0.0067207
-0.00425942
0.00471162
-0.00490993
0.00220372
-0.00574379
-0.000892266
-0.00669237
-0.00464919
-0.00756913
-0.00907282
-0.00801126
-0.0139744
-0.00747582
-0.018687
-0.00546427
-0.0215692
-0.00225044
-0.0195761
-0.00928348
-0.000509034
0.00398775
-0.00122094
0.00856946
-0.00175425
0.010799
-0.00199837
0.0115631
-0.00198092
0.0115057
-0.00177518
0.010998
-0.00146389
0.0102208
-0.00112964
0.00923731
-0.000853651
0.00804076
-0.000716046
0.00658309
-0.000794928
0.0047905
-0.00116207
0.00257085
-0.00187139
-0.000182937
-0.00293202
-0.00358856
-0.00425142
-0.00775341
-0.00553501
-0.0126908
-0.00617366
-0.0180483
-0.00531398
-0.0224288
-0.00259432
-0.0222958
-0.0118778
-0.000814358
0.00480211
-0.00168452
0.00943962
-0.00204682
0.0111613
-0.00187011
0.0113864
-0.00129528
0.0109309
-0.000472719
0.0101755
0.000469958
0.00927816
0.00142451
0.00828276
0.00229351
0.00717176
0.002983
0.00589361
0.00339742
0.00437608
0.0034376
0.00253068
0.00300359
0.000251073
0.00200949
-0.00259446
0.000428152
-0.00617208
-0.00159459
-0.0106681
-0.00352531
-0.0161176
-0.0042686
-0.0216856
-0.00269192
-0.0238724
-0.0145697
-0.00134999
0.0061521
-0.00242232
0.0105119
-0.00239172
0.0111307
-0.00150479
0.0104995
-0.00011726
0.00954333
0.00151998
0.00853824
0.00323784
0.0075603
0.00491293
0.00660767
0.00644394
0.00564075
0.00773553
0.00460202
0.00868736
0.00342425
0.00918684
0.0020312
0.00910457
0.000333345
0.00829674
-0.00178663
0.00662418
-0.00449952
0.00403793
-0.00808184
0.000834176
-0.0129138
-0.00189034
-0.018961
-0.00225815
-0.0235046
-0.0168279
-0.00213547
0.00828757
-0.00292289
0.0112994
-0.00168979
0.00989762
0.000529854
0.00827984
0.00310804
0.00696515
0.00575441
0.00589186
0.00831603
0.00499868
0.0106963
0.00422741
0.0128208
0.00351623
0.0146163
0.00280656
0.0159969
0.00204366
0.0168556
0.00117244
0.0170555
0.000133483
0.0164246
-0.00115573
0.0147473
-0.00282227
0.0117892
-0.00512372
0.00745934
-0.00858396
0.00244495
-0.0139466
-0.000885009
-0.0201747
-0.0177129
-0.00248726
0.0107748
-1.20697e-05
0.00882417
0.0041772
0.00570835
0.00832563
0.0041314
0.0121183
0.00317248
0.0155243
0.00248588
0.0185445
0.00197844
0.0211847
0.00158727
0.0234413
0.00125963
0.0252916
0.000956245
0.0266886
0.000646677
0.0275547
0.000306334
0.0277769
-8.87337e-05
0.0271955
-0.000574331
0.0255731
-0.00119991
0.0225483
-0.00209884
0.0176188
-0.00365454
0.0104011
-0.00672886
0.00247483
-0.0122485
-0.015238
0.0107748
0.019599
0.0253073
0.0294388
0.0326112
0.0350971
0.0370756
0.0386628
0.0399225
0.0408787
0.0415254
0.0418317
0.041743
0.0411687
0.0399687
0.0378699
0.0342154
0.0274865
0.015238
)
;

boundaryField
{
    movingWall
    {
        type            calculated;
        value           uniform 0;
    }
    fixedWalls
    {
        type            calculated;
        value           uniform 0;
    }
    frontAndBack
    {
        type            empty;
    }
}


// ************************************************************************* //
