/*--------------------------------*- C++ -*----------------------------------*\
  =========                 |
  \\      /  F ield         | OpenFOAM: The Open Source CFD Toolbox
   \\    /   O peration     | Website:  https://openfoam.org
    \\  /    A nd           | Version:  13
     \\/     M anipulation  |
\*---------------------------------------------------------------------------*/
FoamFile
{
    format      ascii;
    class       volScalarField;
    location    "4";
    object      p;
}
// * * * * * * * * * * * * * * * * * * * * * * * * * * * * * * * * * * * * * //

dimensions      [0 2 -2 0 0 0 0];

internalField   nonuniform List<scalar> 
400
(
1.49357e-09
-0.00032968
-0.000623068
-0.000705314
-0.000509871
-2.99017e-05
0.000718697
0.00170761
0.0028985
0.00424236
0.00567852
0.00713423
0.00852688
0.0097679
0.0107701
0.0114586
0.0117858
0.0117527
0.0114492
0.0110899
0.000336794
-9.6134e-06
-0.000244207
-0.000296305
-0.000106717
0.000335481
0.00102148
0.00192986
0.0030282
0.00427249
0.00560648
0.00696208
0.0082615
0.00942183
0.0103626
0.0110161
0.0113421
0.0113452
0.0111078
0.0107376
0.000643049
0.00018861
-7.06978e-05
-0.000135121
3.58071e-05
0.0004473
0.00109214
0.00195312
0.00300258
0.00420078
0.00549481
0.00681865
0.00809543
0.00924184
0.0101757
0.0108268
0.0111506
0.0111441
0.0108751
0.0103883
0.000732165
0.000169402
-0.00014068
-0.000236534
-8.97913e-05
0.000298167
0.000920019
0.00176177
0.00280006
0.00399902
0.00530813
0.00666162
0.00798014
0.00917494
0.0101556
0.0108412
0.0111761
0.0111465
0.0108155
0.0102042
0.000506733
-0.000161304
-0.000531495
-0.000666063
-0.000542241
-0.00016622
0.000454655
0.00130941
0.00237881
0.00363053
0.00501563
0.00646679
0.00789915
0.00921367
0.010305
0.0110744
0.0114479
0.0113993
0.010995
0.0102509
-8.86822e-05
-0.000865297
-0.0013003
-0.00147503
-0.00136923
-0.000992442
-0.000351171
0.000547312
0.00168854
0.00304419
0.00456692
0.00618697
0.00781173
0.00932758
0.0106076
0.0115264
0.0119834
0.0119345
0.0114523
0.010555
-0.00110521
-0.00200206
-0.00250753
-0.00272283
-0.00262995
-0.00224135
-0.00156169
-0.000593097
0.000656344
0.00216393
0.0038853
0.00574871
0.00765322
0.00946729
0.0110355
0.012195
0.0128053
0.0127926
0.0122323
0.0111476
-0.0026046
-0.00364139
-0.00422571
-0.00448342
-0.00440073
-0.00399368
-0.00326391
-0.00220628
-0.000819841
0.000881313
0.00285904
0.0050419
0.00732296
0.00955146
0.0115372
0.0130664
0.013939
0.0140292
0.0134023
0.0120838
-0.00466871
-0.00587233
-0.00654652
-0.00685052
-0.00677904
-0.00635332
-0.00557059
-0.00441561
-0.0028749
-0.000949604
0.001334
0.00390916
0.00667024
0.00944994
0.0120198
0.0141012
0.0154066
0.015721
0.0150677
0.0134639
-0.00740836
-0.0088114
-0.00958719
-0.00994182
-0.00988586
-0.00944816
-0.00861978
-0.00737205
-0.00567498
-0.00351191
-0.000891227
0.00213973
0.005483
0.00896672
0.0123289
0.0152154
0.0172171
0.0179708
0.017394
0.0154659
-0.0109754
-0.012613
-0.0134977
-0.0139026
-0.0138659
-0.013427
-0.0125685
-0.0112446
-0.00940512
-0.00701068
-0.00404318
-0.000519768
0.00349031
0.00783315
0.0122326
0.0162614
0.0193548
0.0209175
0.0206424
0.0184039
-0.0155828
-0.0174852
-0.0184699
-0.0189079
-0.0188831
-0.0184489
-0.0175751
-0.0161956
-0.0142385
-0.0116385
-0.00834253
-0.00432767
0.000396684
0.00573214
0.0114318
0.0170262
0.0217788
0.0247579
0.0252324
0.0228344
-0.0215423
-0.0237143
-0.0247481
-0.0251592
-0.0251059
-0.0246561
-0.0237605
-0.0223308
-0.0202747
-0.0175031
-0.0139256
-0.00945738
-0.00402478
0.00238584
0.00963262
0.0172833
0.0244626
0.0298042
0.031853
0.0297488
-0.0293355
-0.0317057
-0.0326377
-0.0328661
-0.0326661
-0.0321145
-0.0311323
-0.0296077
-0.0274347
-0.0245062
-0.0206948
-0.0158417
-0.00976183
-0.00226403
0.0067217
0.0169457
0.0275215
0.0366165
0.0416605
0.0409121
-0.0397507
-0.0420433
-0.0424942
-0.0421806
-0.0415572
-0.0406882
-0.0394458
-0.0376931
-0.035316
-0.0321952
-0.0281679
-0.0229892
-0.0163439
-0.00780051
0.00304603
0.0163426
0.0314626
0.0462475
0.0566037
0.059412
-0.0541446
-0.0555649
-0.0546324
-0.0530033
-0.0513942
-0.049794
-0.0479818
-0.0457758
-0.0430422
-0.0396399
-0.0353618
-0.0298764
-0.0226987
-0.0131357
-0.000333516
0.0165067
0.0374657
0.0605344
0.0798571
0.090417
-0.0750105
-0.0733759
-0.0689589
-0.0644747
-0.0609237
-0.0580099
-0.055279
-0.05242
-0.0492216
-0.0454768
-0.040907
-0.035081
-0.0273289
-0.0166833
-0.00177729
0.0190768
0.0472755
0.0820206
0.116103
0.14215
-0.108812
-0.0968982
-0.0839694
-0.0739707
-0.0673562
-0.0627669
-0.0591038
-0.0557291
-0.0522469
-0.0483163
-0.0435555
-0.0374212
-0.0290792
-0.0172725
-0.000122277
0.0251058
0.0618046
0.112424
0.170997
0.228975
-0.180022
-0.126775
-0.0948682
-0.0765812
-0.0668954
-0.0613382
-0.0575974
-0.0544856
-0.0513462
-0.0477184
-0.0431419
-0.0369975
-0.0283401
-0.0156868
0.00332075
0.0324784
0.0777155
0.147835
0.247303
0.385541
-0.356416
-0.165757
-0.092993
-0.0677275
-0.0574847
-0.0529375
-0.0506352
-0.0489605
-0.0470896
-0.0445232
-0.0408111
-0.0353549
-0.0272349
-0.0148973
0.00424634
0.034934
0.0863772
0.180599
0.354887
0.665254
)
;

boundaryField
{
    movingWall
    {
        type            zeroGradient;
    }
    fixedWalls
    {
        type            zeroGradient;
    }
    frontAndBack
    {
        type            empty;
    }
}


// ************************************************************************* //
