/*--------------------------------*- C++ -*----------------------------------*\
  =========                 |
  \\      /  F ield         | OpenFOAM: The Open Source CFD Toolbox
   \\    /   O peration     | Website:  https://openfoam.org
    \\  /    A nd           | Version:  13
     \\/     M anipulation  |
\*---------------------------------------------------------------------------*/
FoamFile
{
    format      ascii;
    class       surfaceScalarField;
    location    "4";
    object      phi_0;
}
// * * * * * * * * * * * * * * * * * * * * * * * * * * * * * * * * * * * * * //

dimensions      [0 3 -1 0 0 0 0];

internalField   nonuniform List<scalar> 
760
(
-2.35127e-05
2.35127e-05
-7.82258e-05
5.47132e-05
-0.0001601
8.18742e-05
-0.000251862
9.17615e-05
-0.00034183
8.99687e-05
-0.000423095
8.12649e-05
-0.000491385
6.82899e-05
-0.000543821
5.24358e-05
-0.0005783
3.44787e-05
-0.000593256
1.49563e-05
-0.000587629
-5.62682e-06
-0.000560953
-2.66762e-05
-0.000513528
-4.74248e-05
-0.000446704
-6.68238e-05
-0.000363314
-8.339e-05
-0.000268389
-9.49255e-05
-0.00017033
-9.80585e-05
-8.27146e-05
-8.76157e-05
-2.46187e-05
-5.8096e-05
-2.46189e-05
-5.55599e-05
7.90726e-05
-0.000160853
0.000160006
-0.000329844
0.000250866
-0.000523672
0.000285589
-0.000716849
0.000283146
-0.000893516
0.000257932
-0.00104348
0.000218256
-0.00115971
0.000168668
-0.00123701
0.000111772
-0.00127144
4.93849e-05
-0.00126027
-1.67947e-05
-0.00120223
-8.47148e-05
-0.00109797
-0.000151688
-0.000950807
-0.000213983
-0.000767844
-0.000266353
-0.000561498
-0.000301272
-0.000351777
-0.00030778
-0.000169301
-0.000270092
-5.73756e-05
-0.000170021
-8.19948e-05
-8.87654e-05
0.000167838
-0.000269122
0.000340363
-0.000517088
0.000498831
-0.000788874
0.000557375
-0.00105485
0.000549123
-0.00129566
0.000498745
-0.00149844
0.000421034
-0.00165419
0.000324421
-0.00175636
0.000213942
-0.00180016
9.31825e-05
-0.00178241
-3.45438e-05
-0.00170184
-0.000165293
-0.00155954
-0.000293987
-0.00135993
-0.000413587
-0.00111201
-0.000514274
-0.000831097
-0.000582185
-0.000541241
-0.000597637
-0.000278028
-0.000533305
-9.06287e-05
-0.00035742
-0.000172623
-0.000110826
0.000278664
-0.000340915
0.000570451
-0.000644476
0.000802392
-0.000970849
0.000883748
-0.001287
0.000865271
-0.0015716
0.000783349
-0.0018105
0.00065993
-0.00199378
0.000507703
-0.0021142
0.000334357
-0.00216637
0.00014536
-0.00214665
-5.42709e-05
-0.00205329
-0.000258647
-0.00188714
-0.000460137
-0.00165266
-0.000648066
-0.00135951
-0.000807426
-0.00102465
-0.000917045
-0.000675191
-0.000947096
-0.000351926
-0.000856571
-0.000113029
-0.000596317
-0.000285653
-0.000128177
0.000406841
-0.000397399
0.000839673
-0.000747764
0.00115276
-0.00112096
0.00125695
-0.00148018
0.00122449
-0.0018024
0.00110557
-0.00207272
0.000930243
-0.0022808
0.000715791
-0.00241904
0.000472597
-0.00248157
0.00020789
-0.00246401
-7.18388e-05
-0.00236368
-0.000358966
-0.00218039
-0.000643429
-0.00191773
-0.000910729
-0.00158515
-0.00114001
-0.00120076
-0.00130143
-0.000795075
-0.00135278
-0.000415679
-0.00123597
-0.00013205
-0.000879946
-0.000417703
-0.000145945
0.000552787
-0.000453841
0.00114757
-0.000851998
0.00155091
-0.00127358
0.00167853
-0.00167744
0.00162834
-0.0020388
0.00146694
-0.00234224
0.00123368
-0.00257736
0.000950913
-0.00273641
0.000631649
-0.00281306
0.000284538
-0.00280195
-8.29545e-05
-0.00269893
-0.000461977
-0.0025019
-0.000840461
-0.00221255
-0.00120008
-0.00183915
-0.00151341
-0.00140053
-0.00174005
-0.000931216
-0.00182209
-0.000487622
-0.00167956
-0.00015365
-0.00121392
-0.000571353
-0.000167277
0.000720064
-0.000519775
0.00150007
-0.000972995
0.00200414
-0.00145001
0.00215555
-0.00190468
0.00208301
-0.00231046
0.00187271
-0.00265172
0.00157495
-0.00291842
0.00121761
-0.003103
0.000816225
-0.00319877
0.000380311
-0.00319921
-8.25124e-05
-0.00309815
-0.000563042
-0.00289051
-0.0010481
-0.00257471
-0.00151588
-0.00215639
-0.00193173
-0.00165405
-0.00224239
-0.00110651
-0.00236963
-0.00058145
-0.00220462
-0.000182116
-0.00161325
-0.000753469
-0.000194407
0.000914471
-0.000601771
0.00190743
-0.00112145
0.00252382
-0.00166412
0.00269821
-0.0021779
0.00259679
-0.00263468
0.0023295
-0.00301927
0.00195954
-0.00332265
0.00152099
-0.00353806
0.00103164
-0.00365884
0.000501086
-0.00367724
-6.41137e-05
-0.00358454
-0.000655737
-0.00337152
-0.00126112
-0.00303137
-0.00185603
-0.00256472
-0.00239839
-0.00198756
-0.00281955
-0.00134229
-0.00301489
-0.000710371
-0.00283654
-0.000221603
-0.00210202
-0.000975071
-0.000229471
0.00114394
-0.000705526
0.00238349
-0.00130607
0.00312436
-0.00192624
0.00331838
-0.00250777
0.00317831
-0.00302156
0.00284329
-0.00345395
0.00239193
-0.0037981
0.00186514
-0.00404909
0.00128264
-0.00420101
0.000653
-0.00424514
-1.99798e-05
-0.00417002
-0.000730855
-0.00396089
-0.00147025
-0.00360328
-0.00221365
-0.00308915
-0.00291252
-0.00242789
-0.00348081
-0.00166272
-0.00378007
-0.000890555
-0.0036087
-0.000277466
-0.00271511
-0.00125254
-0.000275129
0.00141907
-0.000837326
0.00294568
-0.00153548
0.00382252
-0.00224526
0.00402816
-0.00290158
0.00383463
-0.00347565
0.00341736
-0.00395707
0.00287335
-0.00434302
0.00225108
-0.00463199
0.00157161
-0.00482013
0.000841138
-0.00489846
5.83452e-05
-0.00485323
-0.000776083
-0.00466293
-0.00166055
-0.00430262
-0.00257396
-0.00375062
-0.00346451
-0.0030029
-0.00422853
-0.00209691
-0.00468606
-0.00114383
-0.00456178
-0.000357545
-0.0035014
-0.00161008
-0.000335174
0.00175424
-0.00100509
0.0036156
-0.00181913
0.00463656
-0.00262881
0.00483784
-0.00336256
0.00456838
-0.00399422
0.00404902
-0.00451944
0.00339857
-0.00494196
0.0026736
-0.00526605
0.0018957
-0.00549193
0.00106702
-0.0056115
0.000177917
-0.00561067
-0.000776919
-0.00546046
-0.00181076
-0.00512303
-0.00291139
-0.00455725
-0.0040303
-0.00373558
-0.00505019
-0.00267713
-0.00574451
-0.00149908
-0.00573983
-0.000473501
-0.00452698
-0.00208358
-0.000415264
0.00216951
-0.00121909
0.00441942
-0.00216694
0.0055844
-0.00308113
0.00575204
-0.0038856
0.00537285
-0.00456099
0.00472441
-0.00511312
0.0039507
-0.00555584
0.00311632
-0.00590225
0.00224212
-0.00615961
0.00132439
-0.00632214
0.000340449
-0.00637944
-0.00071962
-0.0062955
-0.0018947
-0.00601904
-0.00318785
-0.00548422
-0.00456512
-0.00462749
-0.00590693
-0.00342898
-0.00694301
-0.00199013
-0.00717868
-0.000642011
-0.0058751
-0.00272559
-0.000523927
0.00269344
-0.00149214
0.00538763
-0.00258654
0.00667881
-0.00359629
0.00676179
-0.00444643
0.00622299
-0.0051317
0.00540968
-0.00567417
0.00449317
-0.00610236
0.00354451
-0.00644168
0.00258144
-0.00670923
0.00159194
-0.00690779
0.000539009
-0.00702937
-0.00059804
-0.00703798
-0.0018861
-0.00687147
-0.00335436
-0.00643763
-0.00499895
-0.00562504
-0.00671952
-0.00434666
-0.00822139
-0.00264529
-0.00888005
-0.000884959
-0.00763543
-0.00361055
-0.000673886
0.00336732
-0.00183787
0.00655162
-0.00307467
0.00791561
-0.00414115
0.00782827
-0.00497699
0.00705882
-0.00560375
0.00603644
-0.00606853
0.00495795
-0.00641991
0.00389589
-0.00669894
0.00286047
-0.00693523
0.00182823
-0.00714306
0.000746831
-0.00732136
-0.000419738
-0.00744097
-0.00176648
-0.00743756
-0.00335777
-0.00719918
-0.00523733
-0.00656247
-0.00735623
-0.00534378
-0.00944009
-0.0034594
-0.0107644
-0.00122603
-0.0098688
-0.00483658
-0.000883143
0.00425047
-0.00226398
0.00793245
-0.00359419
0.00924582
-0.00461494
0.00884903
-0.00531145
0.00775533
-0.0057543
0.00647929
-0.0060271
0.00523074
-0.00620302
0.00407181
-0.00633945
0.0029969
-0.00647801
0.0019668
-0.00664701
0.000915832
-0.00685299
-0.000213764
-0.00708418
-0.00153529
-0.00728876
-0.0031532
-0.00735452
-0.00517157
-0.00708068
-0.00763007
-0.00617219
-0.0103486
-0.0043351
-0.0126015
-0.00167641
-0.0125275
-0.00651299
-0.00117191
0.00542238
-0.00275119
0.00951172
-0.00401344
0.0105081
-0.00475306
0.00958865
-0.00507041
0.00807269
-0.00511983
0.0065287
-0.00502988
0.00514079
-0.00489565
0.00393758
-0.00478392
0.00288517
-0.0047415
0.00192439
-0.00480413
0.000978456
-0.00498984
-2.80493e-05
-0.00530984
-0.00121529
-0.00574464
-0.00271839
-0.00621626
-0.00469996
-0.00653139
-0.00731494
-0.00631
-0.01057
-0.00498084
-0.0139307
-0.00219062
-0.0153177
-0.0087036
-0.00155022
0.0069726
-0.00317603
0.0111375
-0.00392566
0.0112577
-0.00389109
0.00955408
-0.00342051
0.00760212
-0.00278004
0.00588823
-0.00212145
0.0044822
-0.00153665
0.00335278
-0.00107886
0.00242738
-0.000782454
0.00162798
-0.000678134
0.000874136
-0.000792016
8.58332e-05
-0.00116059
-0.000846715
-0.00181538
-0.00206361
-0.00275738
-0.00375795
-0.00388255
-0.00618976
-0.00482875
-0.00962377
-0.00476363
-0.0139958
-0.00256411
-0.0175172
-0.0112677
-0.00196318
0.00893578
-0.00299898
0.0121733
-0.0020857
0.0103444
-0.000408093
0.00787647
0.0013569
0.00583712
0.00296762
0.00427751
0.00432331
0.00312651
0.00540733
0.00226877
0.00622391
0.0016108
0.00677664
0.00107524
0.00705558
0.000595201
0.00703476
0.000106644
0.00665583
-0.000467786
0.00582606
-0.00123384
0.00442652
-0.00235841
0.00236379
-0.00412704
-0.000234731
-0.00702525
-0.00252838
-0.0117022
-0.00229454
-0.0177511
-0.0135623
-0.00218502
0.0111208
0.000752843
0.00923547
0.00544033
0.00565692
0.00941581
0.003901
0.012529
0.00272395
0.0149034
0.00190311
0.0166958
0.00133412
0.0180283
0.000936262
0.0189889
0.000650194
0.0196305
0.000433595
0.0199709
0.000254791
0.0199904
8.7131e-05
0.0196198
-9.71223e-05
0.0187219
-0.000335909
0.0170595
-0.000696014
0.0142637
-0.00133125
0.00989753
-0.0026591
0.00393161
-0.00573624
-0.00109992
-0.0127195
-0.0146622
0.0111208
0.0203563
0.0260132
0.0299142
0.0326381
0.0345413
0.0358754
0.0368116
0.0374618
0.0378954
0.0381502
0.0382374
0.0381402
0.0378043
0.0371083
0.0357771
0.033118
0.0273817
0.0146622
)
;

boundaryField
{
    movingWall
    {
        type            calculated;
        value           uniform 0;
    }
    fixedWalls
    {
        type            calculated;
        value           uniform 0;
    }
    frontAndBack
    {
        type            empty;
    }
}


// ************************************************************************* //
