/*--------------------------------*- C++ -*----------------------------------*\
  =========                 |
  \\      /  F ield         | OpenFOAM: The Open Source CFD Toolbox
   \\    /   O peration     | Website:  https://openfoam.org
    \\  /    A nd           | Version:  13
     \\/     M anipulation  |
\*---------------------------------------------------------------------------*/
FoamFile
{
    format      ascii;
    class       volScalarField;
    location    "12";
    object      p;
}
// * * * * * * * * * * * * * * * * * * * * * * * * * * * * * * * * * * * * * //

dimensions      [0 2 -2 0 0 0 0];

internalField   nonuniform List<scalar> 
400
(
1.35864e-08
-0.000400686
-0.000853794
-0.0011495
-0.00119194
-0.000946173
-0.000403252
0.000430519
0.00153231
0.00285562
0.00432238
0.00581945
0.0072048
0.00832582
0.00904984
0.00930116
0.00909424
0.00855238
0.00790668
0.00744778
0.000402382
-1.13705e-05
-0.000399257
-0.000621607
-0.000622786
-0.000383265
0.000103812
0.000836016
0.00179753
0.00295173
0.00423375
0.00554718
0.00676885
0.0077653
0.00841992
0.00866563
0.00851234
0.0080586
0.00748537
0.00701452
0.000872999
0.000346071
-6.63683e-05
-0.000271169
-0.000263976
-4.86165e-05
0.000376876
0.00101494
0.00185992
0.00288825
0.00404896
0.00525806
0.00640121
0.00734815
0.00797935
0.00821923
0.00806384
0.00758994
0.00694516
0.00632994
0.00117175
0.000490356
-4.1671e-06
-0.000240781
-0.000258838
-8.58322e-05
0.0002749
0.00083187
0.0015921
0.00254761
0.00366206
0.00486078
0.00602955
0.0070266
0.00771011
0.00797596
0.0077923
0.007215
0.00638612
0.00553378
0.00112729
0.000283559
-0.000314856
-0.00061138
-0.00068084
-0.000570153
-0.000285042
0.000192018
0.000884129
0.00180254
0.00292846
0.00419722
0.00549089
0.00664595
0.00748104
0.00784179
0.00764902
0.00693158
0.00584564
0.00468101
0.000604033
-0.000395475
-0.00110385
-0.00147687
-0.00162044
-0.00159685
-0.00141057
-0.00103126
-0.000415016
0.000474823
0.00164442
0.00304588
0.00456085
0.00599939
0.00712451
0.00770419
0.00758012
0.00673193
0.0053353
0.00377466
-0.000517337
-0.00166048
-0.00248029
-0.00294384
-0.00318736
-0.00328618
-0.0032408
-0.00300435
-0.00250629
-0.00167532
-0.000467277
0.00110231
0.00292806
0.00479795
0.00640645
0.00740922
0.0075174
0.00661207
0.00487101
0.00281148
-0.00234403
-0.00361585
-0.00454801
-0.00511792
-0.0054945
-0.00576636
-0.00592909
-0.00591682
-0.00562644
-0.00494021
-0.00375663
-0.00203308
0.000166534
0.00262841
0.0049761
0.00671462
0.00734861
0.00656857
0.00449561
0.00182102
-0.00496986
-0.00635237
-0.0073969
-0.00808986
-0.00863885
-0.00914915
-0.00961351
-0.00994709
-0.0100098
-0.00962501
-0.00861006
-0.0068274
-0.00425271
-0.00105618
0.0023366
0.00525102
0.00688739
0.00659488
0.0043057
0.000912892
-0.00847223
-0.00994265
-0.0110937
-0.0119194
-0.0126768
-0.0134955
-0.0143714
-0.0152045
-0.0158169
-0.0159636
-0.0153565
-0.0137176
-0.0108729
-0.00687058
-0.00212234
0.00252291
0.00586129
0.00668549
0.00449179
0.000348398
-0.0129114
-0.0144384
-0.0156729
-0.0166159
-0.0175926
-0.0187706
-0.0201586
-0.0216494
-0.0230317
-0.0239883
-0.024107
-0.0229273
-0.0200558
-0.0153104
-0.00897374
-0.00199587
0.00395857
0.00687035
0.00540532
0.000658078
-0.0183396
-0.0198746
-0.0211303
-0.0221182
-0.0232643
-0.0247946
-0.026744
-0.0290081
-0.03135
-0.0333839
-0.0345673
-0.0342354
-0.0316936
-0.0264352
-0.0184481
-0.00861571
0.000990686
0.00731895
0.00767409
0.00283382
-0.0248321
-0.0262875
-0.0274221
-0.0282757
-0.0294317
-0.031203
-0.0336627
-0.0367161
-0.0401071
-0.0433883
-0.0458922
-0.0467402
-0.0449217
-0.0395063
-0.0300212
-0.0170327
-0.00279215
0.00855849
0.0123955
0.00862302
-0.0325675
-0.0337596
-0.0344736
-0.0348351
-0.0356782
-0.0374345
-0.0402169
-0.0439344
-0.0483076
-0.0528286
-0.0567143
-0.0588887
-0.0580364
-0.0527799
-0.0420721
-0.0258928
-0.00626847
0.0118225
0.0214324
0.0209155
-0.0420082
-0.0425072
-0.0421973
-0.041433
-0.0414354
-0.042767
-0.0455514
-0.0496704
-0.054795
-0.0603409
-0.0654089
-0.0687449
-0.0687642
-0.0636859
-0.0518802
-0.0325599
-0.00704547
0.0194789
0.0377903
0.0440676
-0.0542244
-0.0530375
-0.0505204
-0.047599
-0.0460241
-0.0464125
-0.0488071
-0.0529914
-0.0585315
-0.0647271
-0.0705392
-0.0745382
-0.0749021
-0.0695034
-0.0562034
-0.0334237
-0.00139983
0.0353653
0.0659795
0.0837982
-0.0714503
-0.0664117
-0.0593434
-0.052693
-0.0486642
-0.0476009
-0.0492633
-0.0532216
-0.0588549
-0.0652848
-0.0712996
-0.0752736
-0.0751409
-0.0684426
-0.05257
-0.0251822
0.0147891
0.0645005
0.112448
0.14758
-0.10054
-0.0848543
-0.0680085
-0.0553951
-0.048142
-0.0453839
-0.0462466
-0.0499282
-0.0555298
-0.0619474
-0.0677945
-0.0712297
-0.0699105
-0.0610026
-0.041315
-0.00760903
0.0429145
0.110459
0.18606
0.25291
-0.172878
-0.112233
-0.0727036
-0.0519407
-0.0418851
-0.0381783
-0.0389434
-0.042911
-0.0488485
-0.055428
-0.0611905
-0.0642024
-0.0618414
-0.0509065
-0.0275544
0.0127978
0.076006
0.168662
0.294567
0.445105
-0.352779
-0.152465
-0.0688661
-0.0423055
-0.0316601
-0.0279349
-0.0292628
-0.0340848
-0.0408717
-0.0481574
-0.054341
-0.0574182
-0.0547862
-0.0431695
-0.0181204
0.0267231
0.101646
0.225359
0.42691
0.729108
)
;

boundaryField
{
    movingWall
    {
        type            zeroGradient;
    }
    fixedWalls
    {
        type            zeroGradient;
    }
    frontAndBack
    {
        type            empty;
    }
}


// ************************************************************************* //
