/*--------------------------------*- C++ -*----------------------------------*\
  =========                 |
  \\      /  F ield         | OpenFOAM: The Open Source CFD Toolbox
   \\    /   O peration     | Website:  https://openfoam.org
    \\  /    A nd           | Version:  13
     \\/     M anipulation  |
\*---------------------------------------------------------------------------*/
FoamFile
{
    format      ascii;
    class       surfaceScalarField;
    location    "12";
    object      phi;
}
// * * * * * * * * * * * * * * * * * * * * * * * * * * * * * * * * * * * * * //

dimensions      [0 3 -1 0 0 0 0];

internalField   nonuniform List<scalar> 
760
(
2.94101e-07
-2.96162e-07
-3.80769e-05
3.8372e-05
-0.000115089
7.70141e-05
-0.000217628
0.000102541
-0.000332645
0.000115017
-0.000449197
0.000116551
-0.000557954
0.000108757
-0.000650283
9.23288e-05
-0.000717742
6.74594e-05
-0.000752326
3.45844e-05
-0.000747482
-4.84395e-06
-0.000699743
-4.77397e-05
-0.000610556
-8.91871e-05
-0.000487756
-0.0001228
-0.000345946
-0.000141809
-0.000205171
-0.000140774
-8.75812e-05
-0.00011759
-1.22493e-05
-7.53318e-05
1.19637e-05
-2.42127e-05
1.19629e-05
-4.0238e-05
3.99422e-05
-0.000171197
0.000169335
-0.00038231
0.000288131
-0.000646651
0.000366884
-0.000936469
0.000404834
-0.00122665
0.000406735
-0.00149458
0.000376682
-0.00171907
0.000316825
-0.00188001
0.000228398
-0.00195918
0.000113757
-0.0019426
-2.14261e-05
-0.0018238
-0.000166545
-0.00160746
-0.000305523
-0.00131213
-0.000418126
-0.000970683
-0.000483258
-0.00062724
-0.000484217
-0.000329916
-0.000414913
-0.000119704
-0.000285544
-1.69726e-05
-0.000126948
-5.00969e-06
-8.82609e-05
0.000128205
-0.000318898
0.000399977
-0.000655126
0.000624361
-0.0010581
0.000769862
-0.00149055
0.000837277
-0.0019184
0.000834579
-0.00231034
0.000768623
-0.00263689
0.000643381
-0.00287028
0.000461784
-0.00298574
0.000229217
-0.00296445
-4.27164e-05
-0.00279761
-0.000333387
-0.0024909
-0.000612231
-0.0020681
-0.00084092
-0.00157219
-0.000979168
-0.00106213
-0.000994273
-0.000604105
-0.00087294
-0.000257334
-0.000632315
-5.75156e-05
-0.000326771
-6.25249e-05
-0.000132461
0.000260668
-0.000457398
0.000724914
-0.000910665
0.00107763
-0.00143953
0.00129873
-0.00199835
0.00139609
-0.00254689
0.00138312
-0.0030484
0.00127013
-0.00346807
0.00106305
-0.00377272
0.000766428
-0.00393215
0.000388645
-0.00392225
-5.26106e-05
-0.0037296
-0.000526037
-0.00335688
-0.000984947
-0.0028281
-0.0013697
-0.00219163
-0.00161564
-0.00151863
-0.00166727
-0.00089426
-0.00149731
-0.000400934
-0.00112564
-9.75318e-05
-0.000630173
-0.000160057
-0.000172045
0.000432713
-0.00058372
0.00113659
-0.00114564
0.00163955
-0.00179127
0.00194435
-0.0024674
0.00207223
-0.00312946
0.00204518
-0.0037375
0.00187817
-0.00425346
0.001579
-0.00464007
0.00115303
-0.0048617
0.000610282
-0.0048873
-2.70146e-05
-0.00469527
-0.000718064
-0.00428026
-0.00139996
-0.00366082
-0.00198914
-0.00288617
-0.00239029
-0.00203841
-0.00251503
-0.00122556
-0.00231017
-0.000562102
-0.0017891
-0.000140241
-0.00105203
-0.000300299
-0.000207587
0.0006403
-0.000698186
0.00162718
-0.00136011
0.00230147
-0.00211429
0.00269853
-0.00290124
0.00285918
-0.00367368
0.00281763
-0.00439041
0.0025949
-0.00501183
0.00220043
-0.00549765
0.00163885
-0.00580662
0.000919257
-0.00589885
6.52146e-05
-0.00574076
-0.000876147
-0.00531318
-0.00182754
-0.00462226
-0.00268006
-0.00371161
-0.00330094
-0.00267123
-0.00355542
-0.00163561
-0.00334579
-0.000762695
-0.00266201
-0.000192945
-0.00162179
-0.000493245
-0.000239435
0.000879734
-0.000800726
0.00218847
-0.00155292
0.00305367
-0.00240617
0.00355177
-0.00329624
0.00374925
-0.00417495
0.00369634
-0.00500179
0.00342173
-0.00573754
0.00293619
-0.00634029
0.00224159
-0.00676366
0.00134263
-0.00695793
0.000259484
-0.00687442
-0.000959653
-0.00647445
-0.00222751
-0.00574345
-0.00341106
-0.00470974
-0.00433465
-0.00346348
-0.00480167
-0.00216541
-0.00464386
-0.0010289
-0.00379852
-0.000264638
-0.00238605
-0.000757884
-0.000267462
0.0011472
-0.00089003
0.00281104
-0.00172042
0.00388405
-0.00265958
0.00449094
-0.00364019
0.00472985
-0.00461502
0.00467116
-0.00554639
0.0043531
-0.00639782
0.00378763
-0.00712807
0.00297185
-0.0076876
0.00190217
-0.00801776
0.000589649
-0.00805381
-0.000923608
-0.00773336
-0.00254795
-0.00701256
-0.00413186
-0.00589126
-0.00545594
-0.00444494
-0.006248
-0.00285167
-0.00623714
-0.00138851
-0.00526169
-0.00036566
-0.0034089
-0.00112354
-0.000291347
0.00143854
-0.000964078
0.00348377
-0.00185701
0.00477699
-0.00286302
0.00549695
-0.00391304
0.00577987
-0.00496264
0.00572076
-0.00597936
0.00536981
-0.00693231
0.00474058
-0.00778441
0.00382396
-0.00848684
0.00260459
-0.00897587
0.00107868
-0.00917328
-0.000726193
-0.0089925
-0.00272873
-0.00835387
-0.0047705
-0.00721389
-0.00659592
-0.00561045
-0.00785143
-0.00371624
-0.00813134
-0.00186792
-0.00711002
-0.000507859
-0.00476895
-0.0016314
-0.000311261
0.0017498
-0.00102174
0.00419425
-0.0019575
0.00571275
-0.00300351
0.00654295
-0.00409005
0.0068664
-0.00517728
0.00680799
-0.0062404
0.00643294
-0.00725749
0.00575768
-0.00820016
0.00476663
-0.00902621
0.00343064
-0.00967405
0.00172652
-0.0100592
-0.000341002
-0.0100765
-0.00271152
-0.00960925
-0.00523771
-0.00855835
-0.00764682
-0.00689587
-0.0095139
-0.00474917
-0.010278
-0.00248604
-0.00937314
-0.00070455
-0.00655045
-0.00233595
-0.000329037
0.00207884
-0.00106546
0.00493068
-0.00202085
0.00666814
-0.00307132
0.00759341
-0.00414749
0.00794256
-0.00521612
0.00787663
-0.0062627
0.00747952
-0.00727782
0.00677279
-0.0082469
0.0057357
-0.00914171
0.00432546
-0.00991274
0.00249755
-0.0104815
0.000227761
-0.0107363
-0.00245674
-0.0105323
-0.00544173
-0.00971076
-0.00846832
-0.00815211
-0.0110726
-0.00588422
-0.0125459
-0.00324207
-0.0120153
-0.00096944
-0.00882308
-0.0033054
-0.000350043
0.00242888
-0.00110523
0.00568587
-0.00205541
0.00761831
-0.00306601
0.00860402
-0.00406996
0.00894651
-0.00504358
0.00885025
-0.00598572
0.00842166
-0.00690301
0.00769008
-0.00779955
0.00663224
-0.00866844
0.00519435
-0.00948295
0.00331206
-0.0101864
0.000931157
-0.0106785
-0.00196457
-0.0108066
-0.00531368
-0.0103642
-0.00891074
-0.00912793
-0.0123088
-0.00697098
-0.0147029
-0.00409481
-0.0148915
-0.00131306
-0.0116048
-0.00461845
-0.000386138
0.00281502
-0.00116378
0.00646352
-0.00208461
0.00853914
-0.00300209
0.0095215
-0.00385662
0.00980104
-0.00463965
0.00963328
-0.0053676
0.00914961
-0.00606647
0.00838895
-0.00676266
0.00732842
-0.00747595
0.00590764
-0.00821141
0.00404752
-0.00894786
0.0016676
-0.0096199
-0.00129253
-0.0100953
-0.00483824
-0.0101516
-0.00885446
-0.00947701
-0.0129834
-0.00775519
-0.0164247
-0.00493503
-0.0177116
-0.00173433
-0.0148055
-0.00635278
-0.000460461
0.00327549
-0.0012829
0.00728596
-0.00215095
0.00940718
-0.00290975
0.0102803
-0.00352003
0.0104113
-0.00399894
0.0101122
-0.00438671
0.00953739
-0.0047318
0.00873403
-0.00508441
0.00768104
-0.00549267
0.0063159
-0.00599715
0.00455199
-0.00662122
0.00229167
-0.00735277
-0.000560984
-0.00811322
-0.00407779
-0.00871209
-0.00825559
-0.00879999
-0.0128955
-0.00788307
-0.0173416
-0.00555896
-0.0200357
-0.002204
-0.0181605
-0.00855677
-0.000614346
0.00388983
-0.00152801
0.00819962
-0.00231062
0.0101898
-0.00281879
0.0107885
-0.00306208
0.0106546
-0.00310183
0.0101519
-0.00301086
0.00944643
-0.00286269
0.00858586
-0.00273025
0.0075486
-0.00268713
0.00627278
-0.00280607
0.00467093
-0.00315469
0.0026403
-0.00378184
6.61614e-05
-0.00468743
-0.00317221
-0.00576618
-0.00717684
-0.00671372
-0.0119479
-0.00693621
-0.0171191
-0.00565296
-0.021319
-0.00263474
-0.0211787
-0.0111915
-0.000909886
0.00479972
-0.00197622
0.00926595
-0.00259095
0.0108045
-0.00268785
0.0108854
-0.00238389
0.0103507
-0.00181259
0.00958063
-0.0010889
0.00872273
-0.000311746
0.0078087
0.000427718
0.00680914
0.00103953
0.00566097
0.00142739
0.00428306
0.00148996
0.00257773
0.00112551
0.000430617
0.000250679
-0.00229737
-0.00115013
-0.00577603
-0.00291104
-0.010187
-0.00448277
-0.0155474
-0.00479486
-0.0210069
-0.00283118
-0.0231424
-0.0140227
-0.00140837
0.00620809
-0.00263067
0.0104882
-0.00280784
0.0109817
-0.0021586
0.0102361
-0.00101296
0.00920501
0.000397655
0.00817001
0.00191871
0.00720168
0.00343671
0.0062907
0.00485648
0.00538937
0.00608433
0.00443312
0.00701781
0.00334958
0.00753981
0.00205573
0.00751637
0.000454062
0.00680147
-0.00158246
0.00525939
-0.00423395
0.00285432
-0.00778196
-9.0775e-05
-0.0126023
-0.00247212
-0.0186256
-0.00245029
-0.0231642
-0.016473
-0.00213508
0.00834317
-0.00299491
0.0113481
-0.00188689
0.00987368
0.000167791
0.00818145
0.00256324
0.00680956
0.00502848
0.00570477
0.00742549
0.00480467
0.00966851
0.00404768
0.0116913
0.00336654
0.0134239
0.00270052
0.0147776
0.00199594
0.0156426
0.00119067
0.0158808
0.00021585
0.0153204
-0.00102205
0.0137488
-0.00266233
0.0109255
-0.00495871
0.00676459
-0.00844135
0.00197467
-0.0138356
-0.00107742
-0.0201121
-0.0175504
-0.0024562
0.0107994
2.29209e-05
0.00886896
0.00417931
0.0057173
0.00824613
0.00411462
0.0119295
0.00312623
0.0152161
0.00241818
0.0181167
0.00190404
0.020646
0.00151837
0.0228065
0.00120605
0.0245812
0.000925788
0.025934
0.000643148
0.0267952
0.000329495
0.0270492
-3.81629e-05
0.0265285
-0.00050135
0.0249826
-0.00111645
0.0220556
-0.00203164
0.0172383
-0.00362409
0.0101394
-0.0067367
0.00231984
-0.0122926
-0.0152306
0.0107994
0.0196683
0.0253856
0.0295003
0.0326265
0.0350447
0.0369487
0.0384671
0.0396731
0.0405989
0.0412421
0.0415716
0.0415334
0.0410321
0.0399156
0.037884
0.0342599
0.0275232
0.0152306
)
;

boundaryField
{
    movingWall
    {
        type            calculated;
        value           uniform 0;
    }
    fixedWalls
    {
        type            calculated;
        value           uniform 0;
    }
    frontAndBack
    {
        type            empty;
    }
}


// ************************************************************************* //
