/*--------------------------------*- C++ -*----------------------------------*\
  =========                 |
  \\      /  F ield         | OpenFOAM: The Open Source CFD Toolbox
   \\    /   O peration     | Website:  https://openfoam.org
    \\  /    A nd           | Version:  13
     \\/     M anipulation  |
\*---------------------------------------------------------------------------*/
FoamFile
{
    format      ascii;
    class       surfaceScalarField;
    location    "12";
    object      phi_0;
}
// * * * * * * * * * * * * * * * * * * * * * * * * * * * * * * * * * * * * * //

dimensions      [0 3 -1 0 0 0 0];

internalField   nonuniform List<scalar> 
760
(
-1.00681e-07
1.01122e-07
-3.79821e-05
3.78812e-05
-0.000113355
7.53728e-05
-0.000213343
9.99872e-05
-0.000325183
0.00011184
-0.000438205
0.000113023
-0.000543386
0.000105182
-0.000632471
8.9085e-05
-0.000697478
6.5007e-05
-0.000730888
3.34107e-05
-0.000726556
-4.33234e-06
-0.000681195
-4.53597e-05
-0.000596083
-8.51123e-05
-0.000478453
-0.00011763
-0.000341943
-0.00013651
-0.000205481
-0.000136462
-9.0304e-05
-0.000115177
-1.51604e-05
-7.5144e-05
1.04952e-05
-2.56563e-05
1.04948e-05
-3.95768e-05
3.96778e-05
-0.000167338
0.000165641
-0.000372764
0.000280798
-0.000629467
0.00035669
-0.000910353
0.000392727
-0.00119101
0.000393683
-0.00144962
0.000363789
-0.00166595
0.000305418
-0.00182094
0.000220002
-0.00189744
0.000109906
-0.00188224
-1.9532e-05
-0.00176916
-0.00015844
-0.00156243
-0.000291835
-0.00127933
-0.000400731
-0.000950749
-0.000465095
-0.000618544
-0.000468668
-0.000328905
-0.000404817
-0.000121949
-0.000282101
-1.88059e-05
-0.0001288
-8.31167e-06
-8.5873e-05
0.00012555
-0.000309764
0.000389531
-0.000635751
0.000606785
-0.00102593
0.000746874
-0.00144398
0.000810772
-0.00185683
0.000806538
-0.00223436
0.000741317
-0.00254845
0.000619505
-0.00277279
0.00044435
-0.00288406
0.000221174
-0.00286448
-3.91091e-05
-0.00270565
-0.000317273
-0.0024127
-0.000584781
-0.00200782
-0.000805616
-0.00153141
-0.000941498
-0.0010394
-0.000960686
-0.00059511
-0.000849103
-0.00025615
-0.000621063
-5.85798e-05
-0.000326369
-6.68921e-05
-0.000128178
0.000253728
-0.000442579
0.000703932
-0.000880924
0.00104513
-0.00139191
0.00125786
-0.0019311
0.00134996
-0.00245949
0.00133493
-0.00294174
0.00122356
-0.00334466
0.00102243
-0.00363686
0.000736548
-0.00378985
0.000374164
-0.00378087
-4.80873e-05
-0.00359714
-0.000500998
-0.00324101
-0.000940913
-0.0027349
-0.00131173
-0.00212437
-0.00155202
-0.00147687
-0.00160819
-0.000873657
-0.00145231
-0.000394342
-0.00110038
-9.7236e-05
-0.000623475
-0.000164129
-0.000165974
0.000419702
-0.000563616
0.00110157
-0.00110634
0.00158785
-0.00172948
0.001881
-0.00238126
0.00200174
-0.00301843
0.0019721
-0.00360255
0.00180769
-0.00409734
0.00151721
-0.00446749
0.0011067
-0.00467937
0.000586042
-0.00470361
-2.38481e-05
-0.00451974
-0.000684862
-0.00412257
-0.00133808
-0.00352949
-0.00190481
-0.00278696
-0.00229455
-0.00197283
-0.00242233
-0.00119
-0.00223515
-0.000548425
-0.00174195
-0.000138161
-0.00103374
-0.00030229
-0.000200096
0.000619798
-0.000673973
0.00157545
-0.00131342
0.0022273
-0.00204157
0.00260915
-0.00280043
0.00276061
-0.00354406
0.00271573
-0.00423274
0.00249636
-0.00482866
0.00211314
-0.00529358
0.00157162
-0.00558843
0.000880902
-0.00567544
6.31607e-05
-0.00552276
-0.00083754
-0.00511217
-0.00174867
-0.00444947
-0.00256751
-0.00357605
-0.00316797
-0.00257743
-0.00342094
-0.00158174
-0.00323084
-0.000740153
-0.00258354
-0.000188605
-0.00158529
-0.000490896
-0.000231176
0.000850974
-0.000774408
0.00211868
-0.0015025
0.00295539
-0.00232789
0.00343454
-0.0031878
0.00362051
-0.00403527
0.0035632
-0.00483112
0.00329221
-0.00553781
0.00281983
-0.0061154
0.0021492
-0.00651978
0.00128529
-0.00670365
0.00024703
-0.0066207
-0.000920489
-0.00623416
-0.00213521
-0.00553032
-0.00327135
-0.00453638
-0.00416191
-0.00333853
-0.00461879
-0.00209024
-0.00447913
-0.000995607
-0.00367818
-0.000257465
-0.00232343
-0.000748361
-0.000259368
0.00111034
-0.000864419
0.00272373
-0.00167137
0.00376234
-0.00258328
0.00434645
-0.00353409
0.00457132
-0.00447758
0.00450669
-0.0053772
0.00419183
-0.00619783
0.00364047
-0.00689996
0.00285133
-0.00743613
0.00182146
-0.00775021
0.000561109
-0.00778024
-0.00089046
-0.00746668
-0.00244877
-0.00676792
-0.00397011
-0.00568448
-0.00524535
-0.00428935
-0.00601392
-0.00275359
-0.00601489
-0.00134278
-0.00508899
-0.00035499
-0.00331122
-0.00110335
-0.000284587
0.00139493
-0.000942628
0.00338177
-0.0018156
0.00463531
-0.00279799
0.00532884
-0.00382174
0.00559507
-0.00484319
0.00552814
-0.00583062
0.00517927
-0.00675412
0.00456396
-0.0075778
0.00367501
-0.00825447
0.00249813
-0.00872257
0.00102921
-0.00890668
-0.00070635
-0.00872362
-0.00263184
-0.00809728
-0.00459644
-0.00698703
-0.0063556
-0.00543097
-0.00756998
-0.00359679
-0.00784906
-0.00180893
-0.00687684
-0.000493016
-0.00462715
-0.00159637
-0.000307116
0.00170204
-0.00100818
0.00408284
-0.0019305
0.00555762
-0.00295993
0.00635827
-0.00402739
0.00666253
-0.00509355
0.00659429
-0.00613397
0.00621969
-0.0071271
0.00555709
-0.00804504
0.00459295
-0.0088464
0.0032995
-0.00947097
0.00165379
-0.0098365
-0.000340826
-0.00984099
-0.00262735
-0.00937234
-0.00506508
-0.00833618
-0.00739176
-0.00670836
-0.0091978
-0.00461539
-0.00994204
-0.00241501
-0.00907723
-0.000685036
-0.00635712
-0.0022814
-0.000328694
0.00203074
-0.00106323
0.00481738
-0.00201455
0.00650894
-0.00305873
0.00740245
-0.00412665
0.00773045
-0.00518526
0.0076529
-0.00621999
0.00725442
-0.00722116
0.00655826
-0.00817379
0.00554558
-0.00904944
0.00417515
-0.00979883
0.00240317
-0.0103444
0.000204725
-0.0105771
-0.00239463
-0.0103562
-0.00528599
-0.00952909
-0.00821887
-0.00798318
-0.0107437
-0.00575118
-0.012174
-0.00316392
-0.0116645
-0.000945322
-0.00857571
-0.00322672
-0.000354313
0.00238505
-0.00111664
0.0055797
-0.00207416
0.00746646
-0.00309122
0.00841951
-0.00410054
0.00873977
-0.0050783
0.00863066
-0.00602284
0.00819895
-0.00693984
0.00747526
-0.00783217
0.00643791
-0.00869161
0.0050346
-0.00949043
0.00320199
-0.0101717
0.000886035
-0.0106361
-0.00193023
-0.0107339
-0.00518828
-0.0102642
-0.00868851
-0.0090127
-0.0119952
-0.00686255
-0.0143242
-0.00402003
-0.014507
-0.00128569
-0.0113101
-0.00451242
-0.000395112
0.00278016
-0.00118911
0.00637371
-0.00212923
0.00840657
-0.00306676
0.00935704
-0.00394134
0.00961435
-0.00474384
0.00943316
-0.00548969
0.00894479
-0.00620333
0.0081889
-0.00690928
0.00714385
-0.00762525
0.00575057
-0.00835443
0.00393117
-0.00907423
0.00160583
-0.00971855
-0.00128591
-0.0101562
-0.00475064
-0.0101682
-0.00867647
-0.00945089
-0.0127126
-0.0077007
-0.0160744
-0.00488029
-0.0173274
-0.00170741
-0.0144829
-0.00621983
-0.000473154
0.00325332
-0.00131954
0.00722009
-0.00221716
0.00930419
-0.00300807
0.0101479
-0.00365156
0.0102578
-0.00416361
0.00994521
-0.00458294
0.00936413
-0.00495604
0.008562
-0.0053309
0.00751871
-0.0057533
0.00617297
-0.00626171
0.00443958
-0.00687757
0.00222168
-0.00758708
-0.000576393
-0.00831066
-0.00402706
-0.00885828
-0.00812885
-0.00888491
-0.0126859
-0.00790797
-0.0170513
-0.00554398
-0.0196914
-0.00218431
-0.0178426
-0.00840414
-0.00062842
0.00388174
-0.00156981
0.00816148
-0.00238802
0.0101224
-0.00293596
0.0106959
-0.00322105
0.0105429
-0.00330281
0.010027
-0.00325214
0.00931345
-0.00314039
0.00845025
-0.00303835
0.00741666
-0.00301731
0.00615194
-0.00314845
0.00457072
-0.0034976
0.00257082
-0.00411187
3.78813e-05
-0.00498906
-0.00314986
-0.0060215
-0.00709641
-0.00690433
-0.0118031
-0.0070492
-0.0169064
-0.00569287
-0.0210477
-0.00263128
-0.0209042
-0.0110354
-0.000921735
0.00480347
-0.00201377
0.00925351
-0.00266333
0.010772
-0.00280055
0.0108331
-0.0025397
0.0102821
-0.00201211
0.00949938
-0.0013306
0.00863195
-0.000592037
0.00771168
0.000114344
0.00671028
0.0006998
0.00556648
0.0010702
0.00420033
0.00112505
0.00251597
0.0007639
0.000399032
-9.42957e-05
-0.00229167
-0.0014624
-0.00572831
-0.00317002
-0.0100955
-0.00466591
-0.0154105
-0.00489023
-0.0208234
-0.00285075
-0.0229437
-0.0138862
-0.0014138
0.00621727
-0.0026537
0.0104934
-0.00285709
0.0109754
-0.00224031
0.0102163
-0.00113082
0.0091726
0.000242062
0.0081265
0.00172576
0.00714825
0.00320838
0.00622907
0.0045962
0.00532247
0.00579722
0.00436546
0.00670975
0.0032878
0.00721783
0.00200789
0.00718882
0.000428035
0.0064787
-0.00158155
0.00495478
-0.00420439
0.00258452
-0.00772523
-0.000304024
-0.012522
-0.00260232
-0.0185251
-0.00248819
-0.0230578
-0.0163744
-0.00213149
0.00834877
-0.00299848
0.0113604
-0.00190279
0.00987967
0.000133323
0.00818022
0.00250578
0.00680015
0.0049452
0.00568708
0.00731463
0.00477882
0.0095292
0.00401449
0.0115239
0.0033278
0.0132302
0.0026591
0.0145601
0.00195795
0.0154051
0.00116283
0.0156295
0.000203652
0.0150647
-0.0010167
0.013502
-0.00264175
0.0107001
-0.00492324
0.00657883
-0.00840077
0.00185027
-0.0137966
-0.00112179
-0.0200857
-0.0174962
-0.00245308
0.0108018
2.86862e-05
0.00887863
0.00418748
0.00572088
0.00824968
0.00411801
0.0119244
0.00312538
0.0151997
0.00241186
0.0180854
0.00189307
0.0205958
0.00150411
0.0227333
0.00119029
0.0244813
0.000911079
0.0258071
0.000632133
0.026646
0.000323957
0.0268859
-3.62218e-05
0.0263596
-0.000490457
0.0248161
-0.00109822
0.0219026
-0.00200973
0.0171103
-0.00360842
0.0100488
-0.0067351
0.00227055
-0.0123075
-0.0152256
0.0108018
0.0196805
0.0254014
0.0295194
0.0326448
0.0350566
0.0369497
0.0384538
0.0396441
0.0405552
0.0411873
0.0415113
0.041475
0.0409846
0.0398864
0.0378766
0.0342682
0.0275331
0.0152256
)
;

boundaryField
{
    movingWall
    {
        type            calculated;
        value           uniform 0;
    }
    fixedWalls
    {
        type            calculated;
        value           uniform 0;
    }
    frontAndBack
    {
        type            empty;
    }
}


// ************************************************************************* //
