/*--------------------------------*- C++ -*----------------------------------*\
  =========                 |
  \\      /  F ield         | OpenFOAM: The Open Source CFD Toolbox
   \\    /   O peration     | Website:  https://openfoam.org
    \\  /    A nd           | Version:  13
     \\/     M anipulation  |
\*---------------------------------------------------------------------------*/
FoamFile
{
    format      ascii;
    class       volVectorField;
    location    "12";
    object      U_0;
}
// * * * * * * * * * * * * * * * * * * * * * * * * * * * * * * * * * * * * * //

dimensions      [0 1 -1 0 0 0 0];

internalField   nonuniform List<vector> 
400
(
(0.00010476 -0.000106658 0)
(-0.000229109 7.8305e-05 0)
(-0.00139141 0.000266046 0)
(-0.00319473 0.000386752 0)
(-0.00536327 0.000447578 0)
(-0.00765532 0.000463125 0)
(-0.00987522 0.000442186 0)
(-0.0118524 0.000386948 0)
(-0.0134247 0.000295925 0)
(-0.0144353 0.000168224 0)
(-0.0147432 7.87859e-06 0)
(-0.0142487 -0.000172823 0)
(-0.0129265 -0.000351747 0)
(-0.0108584 -0.000498496 0)
(-0.00825406 -0.000579608 0)
(-0.00544568 -0.000567162 0)
(-0.00284895 -0.000448757 0)
(-0.000886206 -0.000236452 0)
(0.000138272 2.05435e-05 0)
(0.000193976 0.000189917 0)
(-8.49227e-05 0.000224931 0)
(-0.00169765 0.00162739 0)
(-0.00511095 0.00302327 0)
(-0.00985839 0.00395696 0)
(-0.0153592 0.00441222 0)
(-0.0210854 0.00445538 0)
(-0.0265764 0.0041437 0)
(-0.0314152 0.00350624 0)
(-0.035208 0.00255603 0)
(-0.037587 0.00131472 0)
(-0.0382391 -0.000160767 0)
(-0.0369587 -0.00175747 0)
(-0.0337153 -0.00329855 0)
(-0.0287173 -0.00455585 0)
(-0.022448 -0.00528649 0)
(-0.015649 -0.00529213 0)
(-0.00923156 -0.00449048 0)
(-0.00410833 -0.00298543 0)
(-0.000954694 -0.00113847 0)
(8.15127e-05 0.000179713 0)
(-0.000311319 0.00147708 0)
(-0.00343046 0.00514078 0)
(-0.0090516 0.00833474 0)
(-0.0163985 0.0104395 0)
(-0.0246592 0.0114318 0)
(-0.0331272 0.0114287 0)
(-0.0411743 0.0105398 0)
(-0.0482212 0.00883111 0)
(-0.0537212 0.00634797 0)
(-0.0571696 0.00316502 0)
(-0.0581423 -0.000559556 0)
(-0.056362 -0.00454219 0)
(-0.0517813 -0.00836073 0)
(-0.0446638 -0.0114836 0)
(-0.0356359 -0.0133516 0)
(-0.0256773 -0.0135108 0)
(-0.0160209 -0.0117754 0)
(-0.0079441 -0.00838379 0)
(-0.00248568 -0.00411464 0)
(-8.76366e-05 -0.000586874 0)
(-0.000510344 0.00362983 0)
(-0.00504272 0.0105512 0)
(-0.0127467 0.0160174 0)
(-0.0224801 0.0195006 0)
(-0.0332019 0.0210578 0)
(-0.04407 0.0208892 0)
(-0.0543494 0.0191685 0)
(-0.0633599 0.0160051 0)
(-0.0704534 0.0114841 0)
(-0.0750215 0.00574451 0)
(-0.0765374 -0.00093528 0)
(-0.0746274 -0.008071 0)
(-0.0691682 -0.0149477 0)
(-0.0603912 -0.0206609 0)
(-0.0489689 -0.0242424 0)
(-0.0360428 -0.024878 0)
(-0.0231439 -0.0221876 0)
(-0.0119679 -0.0165008 0)
(-0.00403095 -0.00902572 0)
(-0.000234312 -0.00213676 0)
(-0.000681611 0.00658466 0)
(-0.00649663 0.0176969 0)
(-0.0161343 0.0258611 0)
(-0.0280864 0.0308761 0)
(-0.0410904 0.0329961 0)
(-0.0541952 0.032559 0)
(-0.0666001 0.0298223 0)
(-0.0775677 0.0249403 0)
(-0.086382 0.0180298 0)
(-0.0923451 0.00928189 0)
(-0.0948121 -0.00091714 0)
(-0.0932636 -0.0118857 0)
(-0.0874175 -0.022598 0)
(-0.0773679 -0.0317204 0)
(-0.0637305 -0.0377693 0)
(-0.0477457 -0.0394152 0)
(-0.0312631 -0.0359161 0)
(-0.0165238 -0.027573 0)
(-0.00571223 -0.0160105 0)
(-0.00037567 -0.00446288 0)
(-0.000830541 0.0102543 0)
(-0.00781219 0.026428 0)
(-0.0192332 0.0377052 0)
(-0.0332525 0.0444093 0)
(-0.0484063 0.0471125 0)
(-0.0636613 0.0463577 0)
(-0.078187 0.0425128 0)
(-0.0912249 0.035774 0)
(-0.102019 0.0262671 0)
(-0.109791 0.0141979 0)
(-0.113757 1.65416e-05 0)
(-0.113198 -0.015437 0)
(-0.10758 -0.0308384 0)
(-0.0967342 -0.0443815 0)
(-0.081087 -0.0539386 0)
(-0.0618777 -0.057443 0)
(-0.0412728 -0.0535111 0)
(-0.0222056 -0.0421856 0)
(-0.0078044 -0.0254651 0)
(-0.000548214 -0.00767021 0)
(-0.000959811 0.0145727 0)
(-0.00900693 0.0366092 0)
(-0.022055 0.0513997 0)
(-0.0379787 0.0599634 0)
(-0.0551376 0.0633095 0)
(-0.0724482 0.0622587 0)
(-0.0890867 0.0573184 0)
(-0.104312 0.0487212 0)
(-0.117358 0.0365664 0)
(-0.127386 0.0210155 0)
(-0.133467 0.00250682 0)
(-0.134641 -0.0180386 0)
(-0.130035 -0.0390508 0)
(-0.119086 -0.0582385 0)
(-0.101851 -0.0727011 0)
(-0.0793934 -0.0793509 0)
(-0.0541026 -0.0757456 0)
(-0.0297123 -0.0612599 0)
(-0.0106537 -0.038117 0)
(-0.000795729 -0.012032 0)
(-0.00106914 0.0194827 0)
(-0.0100828 0.0481027 0)
(-0.0245777 0.0667755 0)
(-0.0421964 0.077368 0)
(-0.0611449 0.0814451 0)
(-0.0803234 0.0801828 0)
(-0.0989539 0.0742613 0)
(-0.116355 0.0639429 0)
(-0.1318 0.0492584 0)
(-0.144421 0.0302511 0)
(-0.153174 0.00724566 0)
(-0.156856 -0.0188733 0)
(-0.154205 -0.0463973 0)
(-0.144139 -0.0726003 0)
(-0.126139 -0.0937263 0)
(-0.100812 -0.105364 0)
(-0.0705185 -0.103449 0)
(-0.0397584 -0.0860007 0)
(-0.0146613 -0.0550549 0)
(-0.00117159 -0.018015 0)
(-0.00115774 0.0249268 0)
(-0.0110332 0.0607502 0)
(-0.0267528 0.0836154 0)
(-0.0457751 0.09637 0)
(-0.0661666 0.101259 0)
(-0.0868438 0.099899 0)
(-0.107117 0.0931827 0)
(-0.126414 0.0814008 0)
(-0.144104 0.0644773 0)
(-0.159365 0.04226 0)
(-0.171106 0.0148446 0)
(-0.177939 -0.0170727 0)
(-0.178237 -0.0518163 0)
(-0.170331 -0.0863741 0)
(-0.152926 -0.116167 0)
(-0.125805 -0.135227 0)
(-0.0908347 -0.137215 0)
(-0.052957 -0.117742 0)
(-0.020282 -0.0777209 0)
(-0.00174611 -0.0263088 0)
(-0.00122926 0.0308468 0)
(-0.0118643 0.0743658 0)
(-0.0285397 0.101632 0)
(-0.0485629 0.116589 0)
(-0.0698641 0.122302 0)
(-0.0914064 0.120924 0)
(-0.11263 0.113614 0)
(-0.13313 0.100701 0)
(-0.152443 0.0819788 0)
(-0.169891 0.0570389 0)
(-0.184462 0.0256383 0)
(-0.19472 -0.0118827 0)
(-0.198795 -0.0541136 0)
(-0.194483 -0.0980267 0)
(-0.179588 -0.138444 0)
(-0.152691 -0.167819 0)
(-0.114483 -0.176945 0)
(-0.0695988 -0.157614 0)
(-0.0280017 -0.107828 0)
(-0.00261742 -0.0378621 0)
(-0.00130016 0.0372 0)
(-0.0126332 0.0887508 0)
(-0.0299655 0.120458 0)
(-0.0504622 0.13748 0)
(-0.0719097 0.14387 0)
(-0.0933518 0.142434 0)
(-0.114405 0.134659 0)
(-0.134889 0.120946 0)
(-0.154592 0.100961 0)
(-0.173098 0.0740122 0)
(-0.189637 0.0394434 0)
(-0.202945 -0.00291246 0)
(-0.211149 -0.052179 0)
(-0.211714 -0.105694 0)
(-0.201607 -0.15815 0)
(-0.177934 -0.200769 0)
(-0.139453 -0.221224 0)
(-0.0892601 -0.205952 0)
(-0.0382498 -0.147122 0)
(-0.0039252 -0.0539147 0)
(-0.00141358 0.0440039 0)
(-0.0135073 0.103741 0)
(-0.0312128 0.139661 0)
(-0.051531 0.158314 0)
(-0.0721027 0.164961 0)
(-0.0921073 0.163198 0)
(-0.111398 0.154917 0)
(-0.130083 0.140638 0)
(-0.14828 0.119935 0)
(-0.165953 0.0918541 0)
(-0.182754 0.0553121 0)
(-0.197852 0.00953966 0)
(-0.209703 -0.0453484 0)
(-0.215825 -0.107514 0)
(-0.21267 -0.172224 0)
(-0.195903 -0.230292 0)
(-0.16174 -0.266709 0)
(-0.110222 -0.261434 0)
(-0.051173 -0.196864 0)
(-0.00586416 -0.0759954 0)
(-0.00166315 0.0514269 0)
(-0.0148539 0.119297 0)
(-0.0327303 0.158779 0)
(-0.052091 0.178164 0)
(-0.0704757 0.184245 0)
(-0.0873162 0.18156 0)
(-0.102801 0.172475 0)
(-0.117395 0.157675 0)
(-0.131613 0.136706 0)
(-0.145887 0.108422 0)
(-0.160437 0.0713777 0)
(-0.17509 0.0242089 0)
(-0.189003 -0.0338586 0)
(-0.200266 -0.102222 0)
(-0.205421 -0.177535 0)
(-0.199178 -0.251501 0)
(-0.175103 -0.307833 0)
(-0.128829 -0.320108 0)
(-0.0661829 -0.256885 0)
(-0.00868443 -0.105809 0)
(-0.00223491 0.059954 0)
(-0.0173727 0.135646 0)
(-0.0353448 0.177344 0)
(-0.0527757 0.195877 0)
(-0.0672885 0.200036 0)
(-0.0788149 0.195445 0)
(-0.0880441 0.184963 0)
(-0.0958861 0.16946 0)
(-0.103296 0.148508 0)
(-0.111207 0.120874 0)
(-0.120458 0.0848815 0)
(-0.131668 0.0387053 0)
(-0.144968 -0.0192768 0)
(-0.159534 -0.0898838 0)
(-0.172821 -0.17187 0)
(-0.179593 -0.259367 0)
(-0.171465 -0.337233 0)
(-0.139085 -0.374741 0)
(-0.0812306 -0.324216 0)
(-0.0126269 -0.144863 0)
(-0.00346492 0.070653 0)
(-0.0222566 0.153431 0)
(-0.0402803 0.194835 0)
(-0.0543289 0.209941 0)
(-0.0626366 0.210193 0)
(-0.0661229 0.202345 0)
(-0.066241 0.189648 0)
(-0.0644493 0.173093 0)
(-0.0621548 0.152286 0)
(-0.06075 0.125996 0)
(-0.0616361 0.0924836 0)
(-0.0661804 0.0496911 0)
(-0.075557 -0.0045908 0)
(-0.0903418 -0.0724422 0)
(-0.10968 -0.155004 0)
(-0.129788 -0.25018 0)
(-0.142005 -0.347059 0)
(-0.132805 -0.415059 0)
(-0.0918926 -0.391665 0)
(-0.0176438 -0.193666 0)
(-0.00582982 0.0856421 0)
(-0.0312098 0.173775 0)
(-0.0486678 0.210265 0)
(-0.0564878 0.217976 0)
(-0.0548584 0.211719 0)
(-0.0465598 0.199098 0)
(-0.0341481 0.183403 0)
(-0.0197035 0.165532 0)
(-0.00502985 0.145043 0)
(0.00814927 0.120736 0)
(0.0180475 0.0909478 0)
(0.0227546 0.0536545 0)
(0.0202586 0.00646124 0)
(0.0086522 -0.0534436 0)
(-0.0132659 -0.129167 0)
(-0.0444689 -0.222874 0)
(-0.0784973 -0.330802 0)
(-0.100259 -0.429049 0)
(-0.0905192 -0.447231 0)
(-0.0227258 -0.250785 0)
(-0.0098588 0.109616 0)
(-0.0455989 0.197975 0)
(-0.0588843 0.220751 0)
(-0.0536212 0.215326 0)
(-0.0353167 0.199769 0)
(-0.0097923 0.181342 0)
(0.0191929 0.162552 0)
(0.0491215 0.143767 0)
(0.0780473 0.124303 0)
(0.104207 0.102944 0)
(0.125736 0.0781984 0)
(0.140515 0.0482757 0)
(0.146086 0.0109871 0)
(0.139686 -0.0364981 0)
(0.118413 -0.0981363 0)
(0.0800261 -0.17935 0)
(0.0262416 -0.284854 0)
(-0.0307411 -0.40467 0)
(-0.0659888 -0.4745 0)
(-0.0250632 -0.312183 0)
(-0.0173259 0.153129 0)
(-0.0616777 0.224519 0)
(-0.054788 0.216495 0)
(-0.0201728 0.191655 0)
(0.0256101 0.166204 0)
(0.0744854 0.143376 0)
(0.122876 0.123483 0)
(0.16884 0.105841 0)
(0.211032 0.0893105 0)
(0.248228 0.0726246 0)
(0.278927 0.0545677 0)
(0.301237 0.0337516 0)
(0.312752 0.00845896 0)
(0.310498 -0.0235402 0)
(0.290819 -0.065654 0)
(0.248947 -0.124073 0)
(0.18057 -0.210022 0)
(0.0887524 -0.332109 0)
(-0.00392178 -0.451352 0)
(-0.0174013 -0.362695 0)
(-0.0235275 0.209313 0)
(-0.0369955 0.232047 0)
(0.0382059 0.177186 0)
(0.124758 0.136441 0)
(0.203418 0.107529 0)
(0.272997 0.0858389 0)
(0.334337 0.0693324 0)
(0.38803 0.0563782 0)
(0.434402 0.0455291 0)
(0.473274 0.0356507 0)
(0.504115 0.0258052 0)
(0.526204 0.0149997 0)
(0.537631 0.00224586 0)
(0.535707 -0.0137255 0)
(0.516418 -0.0352134 0)
(0.474114 -0.0661705 0)
(0.400386 -0.116956 0)
(0.283102 -0.208551 0)
(0.127995 -0.3385 0)
(0.0363057 -0.338608 0)
(0.242166 0.109407 0)
(0.314579 0.0974516 0)
(0.446219 0.0568667 0)
(0.551523 0.0346802 0)
(0.625372 0.0230509 0)
(0.679719 0.0159241 0)
(0.721888 0.0112307 0)
(0.755355 0.00805617 0)
(0.782006 0.00579702 0)
(0.802861 0.00403453 0)
(0.818256 0.00243263 0)
(0.82792 0.000738629 0)
(0.831008 -0.00122208 0)
(0.82608 -0.00359752 0)
(0.810695 -0.00671403 0)
(0.78056 -0.0113388 0)
(0.726701 -0.0196288 0)
(0.631511 -0.0365547 0)
(0.459814 -0.0852996 0)
(0.304306 -0.125669 0)
)
;

boundaryField
{
    movingWall
    {
        type            calculated;
        value           uniform (1 0 0);
    }
    fixedWalls
    {
        type            calculated;
        value           uniform (0 0 0);
    }
    frontAndBack
    {
        type            empty;
    }
}


// ************************************************************************* //
