/*--------------------------------*- C++ -*----------------------------------*\
  =========                 |
  \\      /  F ield         | OpenFOAM: The Open Source CFD Toolbox
   \\    /   O peration     | Website:  https://openfoam.org
    \\  /    A nd           | Version:  13
     \\/     M anipulation  |
\*---------------------------------------------------------------------------*/
FoamFile
{
    format      ascii;
    class       surfaceScalarField;
    location    "28";
    object      phi_0;
}
// * * * * * * * * * * * * * * * * * * * * * * * * * * * * * * * * * * * * * //

dimensions      [0 3 -1 0 0 0 0];

internalField   nonuniform List<scalar> 
760
(
3.97263e-06
-3.97208e-06
-3.88885e-05
4.2861e-05
-0.00012969
9.08018e-05
-0.000252885
0.000123194
-0.000392896
0.00014001
-0.000536621
0.000143724
-0.000672481
0.000135859
-0.000789091
0.000116611
-0.000874704
8.5615e-05
-0.000917849
4.31473e-05
-0.000909145
-8.70322e-06
-0.00084395
-6.5194e-05
-0.000725089
-0.000118861
-0.000564715
-0.000160374
-0.000384206
-0.000180509
-0.000211297
-0.000172908
-7.44118e-05
-0.000136884
4.96279e-06
-7.93753e-05
2.15331e-05
-1.65715e-05
2.15325e-05
-4.64256e-05
4.24536e-05
-0.000204956
0.000201391
-0.000462714
0.000348558
-0.000787786
0.000448266
-0.00114669
0.000498915
-0.00150866
0.000505684
-0.00184497
0.000472171
-0.00212758
0.000399232
-0.00232898
0.000287019
-0.00242406
0.000138231
-0.002394
-3.87608e-05
-0.00223123
-0.000227962
-0.00194436
-0.000405732
-0.00156116
-0.000543577
-0.00112795
-0.000613713
-0.000703885
-0.000596978
-0.000349629
-0.000491141
-0.000111983
-0.000317023
-6.91545e-06
-0.000121643
1.46162e-05
-0.000109001
0.000151455
-0.00039523
0.000487619
-0.000813735
0.000767063
-0.00131674
0.000951269
-0.0018585
0.00104067
-0.00239663
0.00104382
-0.00289097
0.000966518
-0.00330238
0.000810647
-0.00359319
0.000577831
-0.00372992
0.000274964
-0.00368803
-8.06525e-05
-0.00345777
-0.00045822
-0.00305
-0.000813499
-0.00250014
-0.00109343
-0.00186825
-0.0012456
-0.00123303
-0.0012322
-0.000678442
-0.00104573
-0.000274037
-0.000721431
-5.36381e-05
-0.000342043
-3.90219e-05
-0.000168415
0.00031987
-0.000577746
0.00089695
-0.001148
0.00133732
-0.00181315
0.00161641
-0.00251667
0.00174419
-0.00320824
0.00173539
-0.00384062
0.0015989
-0.00436784
0.00133786
-0.0047456
0.000955592
-0.00493408
0.000463442
-0.00490275
-0.000111986
-0.00463659
-0.000724381
-0.00414292
-0.00130716
-0.00345733
-0.00177902
-0.00264647
-0.00205646
-0.0018045
-0.00207417
-0.00103981
-0.00181042
-0.000451672
-0.00130957
-0.000102779
-0.000690936
-0.000141801
-0.000221397
0.000541268
-0.000742314
0.00141787
-0.00145051
0.00204552
-0.00226217
0.00242807
-0.00311142
0.00259344
-0.00394266
0.00256664
-0.0047049
0.00236114
-0.00534854
0.0019815
-0.00582492
0.00143197
-0.00608835
0.000726869
-0.00610041
-9.99238e-05
-0.00583612
-0.000988672
-0.0052923
-0.00185098
-0.00449664
-0.00257468
-0.00351553
-0.00303756
-0.002456
-0.0031337
-0.00145526
-0.00281116
-0.000653709
-0.00211112
-0.000156315
-0.00118833
-0.000298117
-0.000266429
0.000807698
-0.000883184
0.00203463
-0.00171089
0.00287323
-0.00265055
0.00336773
-0.00362904
0.00357192
-0.00458799
0.00352559
-0.00547553
0.00324867
-0.00624116
0.00274713
-0.00683373
0.00202454
-0.00720195
0.00109508
-0.00729768
-4.18583e-06
-0.00708117
-0.00120518
-0.00653157
-0.00240058
-0.00565934
-0.00344691
-0.00452141
-0.00417549
-0.00323223
-0.00442287
-0.00196075
-0.00408265
-0.000901886
-0.00316998
-0.000221769
-0.00186845
-0.000519887
-0.000301885
0.00110958
-0.00099482
0.00272756
-0.00191863
0.00379704
-0.00296271
0.0044118
-0.00404924
0.00465845
-0.0051196
0.00459595
-0.00612378
0.00425284
-0.00701315
0.00363651
-0.00773642
0.0027478
-0.00823802
0.00159669
-0.00845911
0.000216908
-0.00834313
-0.00132117
-0.00784468
-0.00289903
-0.006947
-0.0043446
-0.00568462
-0.00543787
-0.00416747
-0.00594002
-0.00259266
-0.00565746
-0.00122187
-0.00454078
-0.000308563
-0.00278176
-0.000828451
-0.000326028
0.00143561
-0.00107157
0.0034731
-0.00206254
0.004788
-0.0031805
0.00552976
-0.00434548
0.00582343
-0.00550098
0.00575146
-0.00660157
0.00535343
-0.00760359
0.00463853
-0.00845886
0.00360307
-0.00911068
0.00224851
-0.0094924
0.000598634
-0.00953013
-0.00128344
-0.00915118
-0.00327799
-0.00830231
-0.00519346
-0.00697955
-0.00676062
-0.00526776
-0.00765181
-0.00337645
-0.00754877
-0.00163845
-0.00627878
-0.000427085
-0.00399312
-0.00125553
-0.000337635
0.00177325
-0.00110906
0.00424453
-0.00213288
0.00581182
-0.0032861
0.00668298
-0.00448875
0.00702608
-0.00568859
0.00695131
-0.0068474
0.00651223
-0.00792996
0.00572108
-0.00889564
0.00456876
-0.00969203
0.00304489
-0.0102505
0.00115708
-0.0104851
-0.00104884
-0.0102977
-0.00346539
-0.00959355
-0.0058976
-0.00831407
-0.0080401
-0.00649073
-0.00947516
-0.00431289
-0.0097266
-0.00217058
-0.00842109
-0.000588346
-0.00557536
-0.00184388
-0.00033707
0.00211032
-0.0011068
0.00501426
-0.00212535
0.00683037
-0.00326738
0.00782501
-0.00445464
0.00821335
-0.00564106
0.00813773
-0.00679817
0.00766934
-0.0079028
0.00682571
-0.00892713
0.00559308
-0.00983019
0.00394795
-0.0105505
0.00187741
-0.0110005
-0.00059886
-0.0110654
-0.00340044
-0.0106118
-0.00635121
-0.00951607
-0.00913587
-0.00772574
-0.0112655
-0.00536059
-0.0120918
-0.00282359
-0.0109581
-0.000803442
-0.00759551
-0.00264733
-0.000327775
0.00243809
-0.00107169
0.00575817
-0.0020464
0.00780508
-0.00312501
0.00890362
-0.00423262
0.00932096
-0.00533153
0.00923663
-0.0064056
0.00874341
-0.00744723
0.00786734
-0.00844654
0.00659239
-0.00938168
0.0048831
-0.0102093
0.00270501
-0.0108539
4.57806e-05
-0.0112007
-0.00305363
-0.0110906
-0.00646135
-0.0103372
-0.0098893
-0.00878182
-0.0128208
-0.00641661
-0.014457
-0.00357657
-0.0137981
-0.00108187
-0.0100902
-0.0037292
-0.000318229
0.00275632
-0.00102225
0.00646219
-0.00191909
0.00870193
-0.00287965
0.00986418
-0.00383522
0.0102765
-0.0047599
0.0101613
-0.00565312
0.00963663
-0.00652596
0.00874017
-0.00739047
0.0074569
-0.00825012
0.00574275
-0.00908924
0.00354413
-0.00986053
0.000817074
-0.0104677
-0.00244643
-0.0107515
-0.00617755
-0.0104827
-0.0101581
-0.00939478
-0.0139088
-0.00730303
-0.0165487
-0.00436526
-0.0167359
-0.00142745
-0.013028
-0.00515665
-0.000324739
0.00308106
-0.000993491
0.00713094
-0.00178821
0.00949664
-0.0025768
0.0106528
-0.00330301
0.0110027
-0.00395934
0.0108176
-0.00456531
0.0102426
-0.00515344
0.00932829
-0.00575976
0.00806323
-0.00641589
0.00639888
-0.00713973
0.00426796
-0.00792235
0.0015997
-0.00870801
-0.00166078
-0.00936718
-0.00551838
-0.00966641
-0.00985888
-0.00926036
-0.0143148
-0.00777001
-0.0180391
-0.00506498
-0.0194409
-0.00182994
-0.0162631
-0.00698659
-0.000375949
0.00345701
-0.00104232
0.00779732
-0.00172269
0.010177
-0.00228499
0.0112151
-0.00269941
0.0114172
-0.00298865
0.0111069
-0.00319903
0.010453
-0.00338695
0.00951621
-0.00361217
0.00828844
-0.00393311
0.00671982
-0.00440087
0.00473573
-0.00504918
0.00224801
-0.00587603
-0.000833929
-0.00681173
-0.00458268
-0.00766882
-0.00900179
-0.0080847
-0.0138989
-0.00751929
-0.0186045
-0.00548063
-0.0214796
-0.00225082
-0.0194929
-0.00923741
-0.000519554
0.00397656
-0.00125114
0.00852891
-0.00180816
0.010734
-0.00207623
0.0114831
-0.00208085
0.0114218
-0.00189408
0.0109201
-0.00159793
0.0101568
-0.00127462
0.0091929
-0.00100527
0.00801909
-0.000870168
0.00658473
-0.000947805
0.00481336
-0.00131033
0.00261054
-0.00201177
-0.000132496
-0.00306071
-0.00353374
-0.00436344
-0.00769906
-0.0056241
-0.0126383
-0.00623386
-0.0179947
-0.00534357
-0.0223699
-0.00260044
-0.022236
-0.0118379
-0.00082436
0.00480092
-0.00171427
0.00941881
-0.00210131
0.0111211
-0.00195015
0.011332
-0.00139882
0.0108704
-0.000595915
0.0101172
0.000331996
0.00922893
0.00127714
0.00824775
0.00214207
0.00715417
0.00283231
0.00589449
0.00325145
0.00439422
0.00329933
0.00256266
0.00287507
0.000291768
0.00189237
-0.00255104
0.000324651
-0.00613135
-0.00168071
-0.0106329
-0.00358866
-0.0160868
-0.00430471
-0.0216538
-0.00270331
-0.0238374
-0.0145412
-0.00135684
0.00615776
-0.00244514
0.0105071
-0.00243608
0.011112
-0.00157258
0.0104685
-0.000207278
0.00950515
0.00141108
0.00849885
0.00311477
0.00752524
0.00478112
0.0065814
0.00630898
0.00562631
0.00760257
0.0046009
0.00856072
0.00343607
0.00906971
0.00205367
0.00899891
0.000362572
0.00820325
-0.00175538
0.00654294
-0.00447104
0.00396963
-0.0080596
0.000781329
-0.0128985
-0.00192411
-0.0189484
-0.00227055
-0.0234909
-0.0168117
-0.00213655
0.00829432
-0.00293246
0.011303
-0.00171348
0.00989303
0.000488583
0.00826642
0.00304829
0.00694544
0.00567751
0.00586964
0.00822504
0.00497771
0.0105955
0.00421091
0.0127154
0.00350642
0.0145112
0.00280509
0.0158968
0.00205052
0.0167644
0.00118604
0.016976
0.00015102
0.016358
-0.00113742
0.0146934
-0.00280642
0.0117462
-0.00511245
0.00742614
-0.00857838
0.00242223
-0.0139445
-0.000895345
-0.0201734
-0.0177071
-0.00248381
0.0107781
-9.07883e-06
0.00882828
0.0041754
0.00570855
0.0083144
0.00412741
0.0120944
0.00316541
0.0154865
0.00247753
0.0184936
0.00197065
0.0211231
0.00158146
0.0233727
0.00125675
0.0252211
0.000956754
0.0266214
0.000650161
0.0274954
0.000312028
0.0277281
-8.16116e-05
0.0271581
-0.000567483
0.0255462
-0.00119446
0.0225299
-0.00209618
0.0176063
-0.00365482
0.0103923
-0.00673045
0.00246945
-0.0122505
-0.0152376
0.0107781
0.0196064
0.025315
0.0294424
0.0326078
0.0350853
0.037056
0.0386374
0.0398942
0.0408509
0.0415011
0.0418131
0.0417315
0.041164
0.0399696
0.0378734
0.0342186
0.0274881
0.0152376
)
;

boundaryField
{
    movingWall
    {
        type            calculated;
        value           uniform 0;
    }
    fixedWalls
    {
        type            calculated;
        value           uniform 0;
    }
    frontAndBack
    {
        type            empty;
    }
}


// ************************************************************************* //
