/*--------------------------------*- C++ -*----------------------------------*\
  =========                 |
  \\      /  F ield         | OpenFOAM: The Open Source CFD Toolbox
   \\    /   O peration     | Website:  https://openfoam.org
    \\  /    A nd           | Version:  13
     \\/     M anipulation  |
\*---------------------------------------------------------------------------*/
FoamFile
{
    format      ascii;
    class       volVectorField;
    location    "28";
    object      U_0;
}
// * * * * * * * * * * * * * * * * * * * * * * * * * * * * * * * * * * * * * //

dimensions      [0 1 -1 0 0 0 0];

internalField   nonuniform List<vector> 
400
(
(0.00017241 -0.000175977 0)
(-0.000150769 3.79141e-05 0)
(-0.00152033 0.000270587 0)
(-0.00372177 0.000418751 0)
(-0.00641683 0.000496608 0)
(-0.00931074 0.000525141 0)
(-0.0121593 0.000514136 0)
(-0.0147358 0.000462974 0)
(-0.016808 0.000365542 0)
(-0.0181382 0.00021698 0)
(-0.018509 2.06356e-05 0)
(-0.0177702 -0.000206621 0)
(-0.0158954 -0.000432057 0)
(-0.013032 -0.000610756 0)
(-0.0095215 -0.00069558 0)
(-0.00587178 -0.00065217 0)
(-0.00267141 -0.000473484 0)
(-0.000450933 -0.000188267 0)
(0.000502152 0.000124741 0)
(0.000297796 0.000291009 0)
(-5.342e-05 0.000149309 0)
(-0.00203271 0.00189659 0)
(-0.00627763 0.00367537 0)
(-0.0122667 0.00490344 0)
(-0.0192654 0.00554757 0)
(-0.0266195 0.00568241 0)
(-0.0337399 0.00535897 0)
(-0.0400624 0.00458565 0)
(-0.0450264 0.00335448 0)
(-0.0480917 0.00168424 0)
(-0.0487992 -0.000336927 0)
(-0.0468639 -0.00252345 0)
(-0.0422802 -0.00459023 0)
(-0.0354075 -0.00618674 0)
(-0.0270005 -0.0069696 0)
(-0.0181492 -0.00670386 0)
(-0.0101093 -0.0053669 0)
(-0.00402865 -0.00322408 0)
(-0.000606994 -0.000883399 0)
(0.000207668 0.00055033 0)
(-0.000350036 0.00169004 0)
(-0.0043595 0.00631046 0)
(-0.0115398 0.0104049 0)
(-0.0209974 0.013172 0)
(-0.0316737 0.0145644 0)
(-0.0426806 0.0147068 0)
(-0.0532032 0.0136897 0)
(-0.0624502 0.0115382 0)
(-0.0696449 0.00826689 0)
(-0.0740572 0.00396587 0)
(-0.0750823 -0.00111709 0)
(-0.0723519 -0.00652613 0)
(-0.0658572 -0.0116006 0)
(-0.056053 -0.0155489 0)
(-0.0439062 -0.0176004 0)
(-0.0308436 -0.0172191 0)
(-0.0185623 -0.014335 0)
(-0.00869697 -0.00951702 0)
(-0.00241707 -0.00405054 0)
(2.3404e-05 -3.0077e-05 0)
(-0.00061831 0.00447982 0)
(-0.0066008 0.0133083 0)
(-0.0165955 0.0203581 0)
(-0.0292701 0.0249403 0)
(-0.0432398 0.0271165 0)
(-0.0574408 0.0271003 0)
(-0.0709164 0.0250318 0)
(-0.0827378 0.02096 0)
(-0.091993 0.0149354 0)
(-0.0978215 0.00714308 0)
(-0.0994946 -0.00197551 0)
(-0.0965289 -0.011648 0)
(-0.0888217 -0.0207729 0)
(-0.0767839 -0.028025 0)
(-0.061437 -0.0320816 0)
(-0.0444193 -0.0319644 0)
(-0.0278301 -0.0274372 0)
(-0.0138738 -0.0193314 0)
(-0.00438609 -0.00966242 0)
(-0.000135166 -0.00156663 0)
(-0.000849398 0.00840652 0)
(-0.0086102 0.0226747 0)
(-0.0211688 0.0332249 0)
(-0.0367616 0.0397973 0)
(-0.0536967 0.0427287 0)
(-0.0707778 0.042395 0)
(-0.0869696 0.0390111 0)
(-0.101275 0.0326543 0)
(-0.112706 0.0234063 0)
(-0.120302 0.0115351 0)
(-0.123198 -0.00234044 0)
(-0.12073 -0.0171452 0)
(-0.112582 -0.0313249 0)
(-0.0989624 -0.0429581 0)
(-0.0807857 -0.0500296 0)
(-0.0597927 -0.0509017 0)
(-0.0384936 -0.0449311 0)
(-0.0198296 -0.033046 0)
(-0.00658624 -0.0179927 0)
(-0.00028017 -0.00411286 0)
(-0.00104094 0.01332 0)
(-0.0103189 0.0341287 0)
(-0.0250923 0.0486789 0)
(-0.043224 0.0574056 0)
(-0.0627626 0.0610886 0)
(-0.0824251 0.060354 0)
(-0.101153 0.0555268 0)
(-0.117941 0.0467135 0)
(-0.131773 0.0340024 0)
(-0.141615 0.0176973 0)
(-0.146451 -0.0014713 0)
(-0.145371 -0.0221877 0)
(-0.137722 -0.0424865 0)
(-0.123343 -0.0598098 0)
(-0.102843 -0.0712884 0)
(-0.0779002 -0.0743198 0)
(-0.0513891 -0.067457 0)
(-0.0271519 -0.0513961 0)
(-0.0092993 -0.0295624 0)
(-0.00045374 -0.0078166 0)
(-0.00118666 0.0190448 0)
(-0.0116622 0.0473179 0)
(-0.0282074 0.0663089 0)
(-0.0483941 0.07736 0)
(-0.0700758 0.0818441 0)
(-0.0919315 0.0807278 0)
(-0.112933 0.0744864 0)
(-0.132123 0.0632542 0)
(-0.148511 0.0470872 0)
(-0.161027 0.0262498 0)
(-0.168514 0.00147904 0)
(-0.169786 -0.025791 0)
(-0.163769 -0.0532757 0)
(-0.14976 -0.0777964 0)
(-0.127831 -0.0954875 0)
(-0.099324 -0.102417 0)
(-0.0672823 -0.0957619 0)
(-0.0365101 -0.075401 0)
(-0.0128868 -0.0452189 0)
(-0.000706496 -0.0130043 0)
(-0.00127874 0.0253715 0)
(-0.0125743 0.0618104 0)
(-0.0303531 0.085595 0)
(-0.0519849 0.099129 0)
(-0.0751958 0.104505 0)
(-0.0986736 0.103117 0)
(-0.12147 0.0956348 0)
(-0.142733 0.0822231 0)
(-0.161565 0.0628626 0)
(-0.176927 0.0376896 0)
(-0.18758 0.00731528 0)
(-0.192094 -0.0268766 0)
(-0.188947 -0.0624466 0)
(-0.176785 -0.0957062 0)
(-0.15489 -0.121744 0)
(-0.123885 -0.134955 0)
(-0.0865607 -0.130415 0)
(-0.0484969 -0.106231 0)
(-0.0177465 -0.0661363 0)
(-0.00110069 -0.0202065 0)
(-0.00131254 0.032058 0)
(-0.0130093 0.0770984 0)
(-0.0314004 0.105903 0)
(-0.0537341 0.122025 0)
(-0.0776691 0.128378 0)
(-0.101942 0.126869 0)
(-0.125729 0.118415 0)
(-0.148345 0.103223 0)
(-0.169063 0.081169 0)
(-0.186974 0.0521782 0)
(-0.200874 0.0165969 0)
(-0.209204 -0.0244331 0)
(-0.210081 -0.0685647 0)
(-0.20148 -0.111842 0)
(-0.181703 -0.148436 0)
(-0.150207 -0.170884 0)
(-0.108867 -0.171398 0)
(-0.0634425 -0.144935 0)
(-0.0242854 -0.093742 0)
(-0.00171854 -0.030173 0)
(-0.00129384 0.0388491 0)
(-0.0129786 0.0926274 0)
(-0.0313181 0.126501 0)
(-0.0534969 0.145196 0)
(-0.0771511 0.152531 0)
(-0.1011 0.15101 0)
(-0.124686 0.141864 0)
(-0.147452 0.125376 0)
(-0.168927 0.10131 0)
(-0.188455 0.0693322 0)
(-0.205032 0.0294083 0)
(-0.217172 -0.0177607 0)
(-0.222833 -0.0702155 0)
(-0.219465 -0.124119 0)
(-0.204336 -0.173111 0)
(-0.175361 -0.208 0)
(-0.132677 -0.217583 0)
(-0.081138 -0.191976 0)
(-0.0328662 -0.129535 0)
(-0.00267343 -0.0438834 0)
(-0.0012488 0.0455217 0)
(-0.0126028 0.107859 0)
(-0.0302621 0.146605 0)
(-0.0513685 0.167646 0)
(-0.0735671 0.175786 0)
(-0.0957971 0.174221 0)
(-0.117615 0.16457 0)
(-0.138847 0.147251 0)
(-0.159363 0.121951 0)
(-0.178884 0.0880671 0)
(-0.196789 0.0451267 0)
(-0.211921 -0.00676615 0)
(-0.22239 -0.06635 0)
(-0.225434 -0.13039 0)
(-0.217486 -0.192644 0)
(-0.194771 -0.242795 0)
(-0.154935 -0.266205 0)
(-0.100449 -0.246562 0)
(-0.04368 -0.174729 0)
(-0.0041202 -0.0625407 0)
(-0.00123774 0.0519635 0)
(-0.0121775 0.12238 0)
(-0.0286766 0.165465 0)
(-0.0478133 0.188291 0)
(-0.0672715 0.196765 0)
(-0.0861774 0.19488 0)
(-0.104368 0.184726 0)
(-0.122014 0.166925 0)
(-0.13939 0.141145 0)
(-0.156693 0.106567 0)
(-0.17384 0.0622903 0)
(-0.190248 0.00774972 0)
(-0.204533 -0.0567175 0)
(-0.214181 -0.12898 0)
(-0.215279 -0.203753 0)
(-0.20262 -0.270701 0)
(-0.170965 -0.312593 0)
(-0.118909 -0.305891 0)
(-0.0564958 -0.229633 0)
(-0.00625792 -0.0875139 0)
(-0.0013772 0.0583003 0)
(-0.012259 0.136056 0)
(-0.0273985 0.182477 0)
(-0.0437639 0.206036 0)
(-0.0591422 0.213963 0)
(-0.0729866 0.211164 0)
(-0.0855291 0.200263 0)
(-0.0973538 0.182139 0)
(-0.109186 0.156512 0)
(-0.121736 0.12243 0)
(-0.135537 0.0786478 0)
(-0.150731 0.0239772 0)
(-0.166751 -0.0422429 0)
(-0.181849 -0.119346 0)
(-0.192486 -0.203844 0)
(-0.192775 -0.286858 0)
(-0.174869 -0.350429 0)
(-0.13249 -0.364575 0)
(-0.0702636 -0.292744 0)
(-0.00931223 -0.120154 0)
(-0.00188089 0.0650939 0)
(-0.0137843 0.149227 0)
(-0.0277449 0.197275 0)
(-0.0406279 0.21982 0)
(-0.0505075 0.225803 0)
(-0.0574409 0.221149 0)
(-0.0622452 0.209017 0)
(-0.0660061 0.19054 0)
(-0.0699129 0.165524 0)
(-0.0751669 0.132969 0)
(-0.0828874 0.091417 0)
(-0.0939649 0.0392169 0)
(-0.108797 -0.025171 0)
(-0.126813 -0.102601 0)
(-0.145656 -0.191946 0)
(-0.159946 -0.287309 0)
(-0.160351 -0.37272 0)
(-0.135741 -0.414664 0)
(-0.0826177 -0.359668 0)
(-0.0134475 -0.161325 0)
(-0.0031191 0.0736347 0)
(-0.0182183 0.162904 0)
(-0.0314944 0.209739 0)
(-0.0400194 0.228536 0)
(-0.0426464 0.230578 0)
(-0.0405415 0.222823 0)
(-0.0353858 0.208823 0)
(-0.0288644 0.189851 0)
(-0.0226168 0.165763 0)
(-0.0182552 0.135556 0)
(-0.0173692 0.0976895 0)
(-0.02148 0.0502767 0)
(-0.0319 -0.00878531 0)
(-0.0493944 -0.0815653 0)
(-0.0734048 -0.169325 0)
(-0.10041 -0.27021 0)
(-0.121517 -0.373293 0)
(-0.12215 -0.446552 0)
(-0.0893576 -0.422444 0)
(-0.0184564 -0.210596 0)
(-0.00560545 0.0864354 0)
(-0.0275373 0.178863 0)
(-0.0403273 0.219629 0)
(-0.0425256 0.230574 0)
(-0.0350179 0.226078 0)
(-0.0209327 0.213831 0)
(-0.00314317 0.197374 0)
(0.016007 0.177847 0)
(0.0344956 0.155022 0)
(0.0504337 0.127871 0)
(0.0619372 0.0948749 0)
(0.0670588 0.0541358 0)
(0.0637865 0.00339207 0)
(0.0501753 -0.0600418 0)
(0.0248262 -0.139189 0)
(-0.0116107 -0.236336 0)
(-0.0530272 -0.348083 0)
(-0.084314 -0.450445 0)
(-0.0839615 -0.469948 0)
(-0.0231335 -0.265853 0)
(-0.00989855 0.108792 0)
(-0.0432699 0.199336 0)
(-0.0529195 0.225113 0)
(-0.0429862 0.222342 0)
(-0.0195724 0.208468 0)
(0.0111136 0.19072 0)
(0.0449399 0.171769 0)
(0.0791001 0.152148 0)
(0.111439 0.131305 0)
(0.140049 0.108132 0)
(0.163008 0.0811881 0)
(0.178214 0.0487584 0)
(0.183264 0.00879326 0)
(0.175418 -0.041334 0)
(0.151705 -0.105302 0)
(0.109745 -0.188363 0)
(0.0508732 -0.295413 0)
(-0.0135559 -0.417204 0)
(-0.0572951 -0.488348 0)
(-0.0247186 -0.323489 0)
(-0.0177696 0.151846 0)
(-0.0613761 0.22368 0)
(-0.0525943 0.217462 0)
(-0.0150482 0.194495 0)
(0.0343133 0.170455 0)
(0.0870986 0.148419 0)
(0.139375 0.128778 0)
(0.188893 0.110923 0)
(0.23408 0.0937846 0)
(0.273541 0.0761531 0)
(0.305735 0.0567574 0)
(0.328778 0.0342312 0)
(0.340266 0.00702319 0)
(0.33717 -0.0268735 0)
(0.315646 -0.0706171 0)
(0.271065 -0.130118 0)
(0.199205 -0.216237 0)
(0.102306 -0.338186 0)
(0.00394673 -0.45662 0)
(-0.0160606 -0.369071 0)
(-0.0241565 0.208417 0)
(-0.0378066 0.23051 0)
(0.0373319 0.176554 0)
(0.124951 0.136714 0)
(0.205455 0.108798 0)
(0.277312 0.0878952 0)
(0.341237 0.0718081 0)
(0.397566 0.0589372 0)
(0.44639 0.0478843 0)
(0.487481 0.0375092 0)
(0.520213 0.0268344 0)
(0.543331 0.0149873 0)
(0.554915 0.0010755 0)
(0.552272 -0.0159837 0)
(0.531545 -0.038026 0)
(0.48722 -0.068976 0)
(0.410805 -0.119032 0)
(0.290638 -0.209351 0)
(0.132988 -0.338298 0)
(0.0386567 -0.340311 0)
(0.241925 0.109179 0)
(0.313593 0.0971836 0)
(0.444517 0.0569977 0)
(0.549791 0.0351004 0)
(0.624092 0.0237031 0)
(0.679443 0.0166607 0)
(0.723118 0.0119357 0)
(0.758258 0.00866841 0)
(0.78644 0.00625703 0)
(0.808477 0.00426166 0)
(0.824551 0.00237863 0)
(0.834275 0.000398688 0)
(0.836765 -0.00185646 0)
(0.830574 -0.00454832 0)
(0.813364 -0.00800364 0)
(0.781212 -0.0128933 0)
(0.725796 -0.0212731 0)
(0.629936 -0.0381438 0)
(0.459282 -0.0856144 0)
(0.304883 -0.125708 0)
)
;

boundaryField
{
    movingWall
    {
        type            calculated;
        value           uniform (1 0 0);
    }
    fixedWalls
    {
        type            calculated;
        value           uniform (0 0 0);
    }
    frontAndBack
    {
        type            empty;
    }
}


// ************************************************************************* //
