/*--------------------------------*- C++ -*----------------------------------*\
  =========                 |
  \\      /  F ield         | OpenFOAM: The Open Source CFD Toolbox
   \\    /   O peration     | Website:  https://openfoam.org
    \\  /    A nd           | Version:  13
     \\/     M anipulation  |
\*---------------------------------------------------------------------------*/
FoamFile
{
    format      ascii;
    class       surfaceScalarField;
    location    "23";
    object      phi_0;
}
// * * * * * * * * * * * * * * * * * * * * * * * * * * * * * * * * * * * * * //

dimensions      [0 3 -1 0 0 0 0];

internalField   nonuniform List<scalar> 
760
(
3.25204e-06
-3.25162e-06
-3.88299e-05
4.20818e-05
-0.00012727
8.84409e-05
-0.000246981
0.000119711
-0.000382828
0.000135846
-0.000522073
0.000139245
-0.000653513
0.000131439
-0.000766214
0.000112702
-0.000848966
8.27522e-05
-0.000890841
4.18759e-05
-0.000882881
-7.95887e-06
-0.000820593
-6.22887e-05
-0.000706537
-0.000114056
-0.000552157
-0.00015438
-0.000377765
-0.000174392
-0.000209924
-0.000167841
-7.61308e-05
-0.000133793
2.45892e-06
-7.85899e-05
2.00863e-05
-1.76282e-05
2.00858e-05
-4.5314e-05
4.20627e-05
-0.000198999
0.000195768
-0.000448763
0.000338205
-0.000763592
0.000434538
-0.00111103
0.000483284
-0.00146129
0.000489504
-0.00178669
0.000456844
-0.00206032
0.000386326
-0.00225578
0.000278216
-0.00234898
0.000135083
-0.00232174
-3.52029e-05
-0.00216649
-0.000217539
-0.00189108
-0.000389459
-0.00152179
-0.000523671
-0.00110288
-0.000593301
-0.000691283
-0.000579443
-0.000345872
-0.000479204
-0.000112641
-0.000311822
-8.26857e-06
-0.000122001
1.18166e-05
-0.000105327
0.000147389
-0.00038196
0.000472401
-0.000786459
0.000742704
-0.00127271
0.000920789
-0.0017965
0.00100707
-0.00231692
0.00100992
-0.00279528
0.000935209
-0.00319399
0.000785031
-0.00347684
0.000561069
-0.00361155
0.000269797
-0.00357422
-7.25363e-05
-0.00335497
-0.000436789
-0.00296363
-0.000780793
-0.00243373
-0.00105357
-0.00182274
-0.00120429
-0.00120652
-0.00119567
-0.000666552
-0.00101917
-0.000271
-0.000707375
-5.39985e-05
-0.000339003
-4.21823e-05
-0.000162109
0.000309499
-0.00055704
0.000867332
-0.0011076
0.00129326
-0.00175021
0.0015634
-0.00243034
0.00168721
-0.00309946
0.00167904
-0.00371204
0.0015478
-0.00422385
0.00129684
-0.00459215
0.000929368
-0.0047783
0.000455957
-0.00475239
-9.84507e-05
-0.00449923
-0.000689947
-0.00402513
-0.0012549
-0.00336375
-0.00171494
-0.00257908
-0.00198897
-0.00176205
-0.00201269
-0.00101793
-0.00176329
-0.000443772
-0.00128154
-0.000101776
-0.000681
-0.000143959
-0.000212855
0.000522353
-0.000715393
0.00136987
-0.00139932
0.00197719
-0.002184
0.00234808
-0.00300589
0.0025091
-0.00381133
0.00248447
-0.0045511
0.00228757
-0.00517733
0.00192306
-0.00564283
0.00139487
-0.00590303
0.000716151
-0.00592005
-8.14238e-05
-0.00566896
-0.000941034
-0.00514583
-0.00177803
-0.00437678
-0.002484
-0.00342575
-0.00293999
-0.00239644
-0.003042
-0.00142227
-0.00273746
-0.000640284
-0.00206352
-0.000153784
-0.0011675
-0.000297743
-0.000256425
0.000778778
-0.000852319
0.00196576
-0.00165302
0.00277789
-0.00256319
0.00325824
-0.0035122
0.00345811
-0.00444364
0.00341592
-0.00530733
0.00315126
-0.0060543
0.00267003
-0.00663468
0.00197525
-0.00699816
0.00107963
-0.00709703
1.74464e-05
-0.00689205
-0.00114601
-0.00636197
-0.00230811
-0.00551639
-0.00332958
-0.0044104
-0.00404598
-0.00315535
-0.00429704
-0.00191591
-0.0039769
-0.000882376
-0.00309706
-0.000217521
-0.00183236
-0.000515264
-0.000291513
0.00107029
-0.000963122
0.00263737
-0.00185957
0.00367433
-0.00287404
0.00427272
-0.00393125
0.00451532
-0.0049744
0.00445908
-0.00595498
0.00413183
-0.00682558
0.00354063
-0.00753586
0.00268552
-0.00803097
0.00157474
-0.0082528
0.000239279
-0.00814492
-0.0012539
-0.00766242
-0.00279062
-0.00678849
-0.00420351
-0.00555683
-0.00527764
-0.0040751
-0.00577877
-0.00253617
-0.00551582
-0.00119591
-0.00443732
-0.000302374
-0.0027259
-0.000817638
-0.000316592
0.00138688
-0.00104269
0.00336347
-0.00200867
0.00464032
-0.00309967
0.00536371
-0.00423807
0.00565372
-0.00536907
0.00559007
-0.00644841
0.00521118
-0.00743331
0.00452553
-0.00827614
0.00352835
-0.00892057
0.00221917
-0.00930032
0.000619022
-0.00934185
-0.00121237
-0.00897318
-0.00315928
-0.00814191
-0.00503478
-0.00684457
-0.00657498
-0.00516527
-0.00745807
-0.00331034
-0.00737075
-0.00160629
-0.00614136
-0.00041877
-0.00391342
-0.00123641
-0.000330489
0.00171737
-0.00108677
0.00411976
-0.00209082
0.00564437
-0.00322258
0.00649547
-0.00440418
0.00683532
-0.00558484
0.00677073
-0.00672725
0.00635358
-0.00779665
0.00559493
-0.00875251
0.00448422
-0.00954227
0.00300892
-0.0100971
0.00117388
-0.0103313
-0.000978207
-0.0101473
-0.00334332
-0.00945166
-0.00573037
-0.00818779
-0.00783885
-0.00638851
-0.00925735
-0.00424225
-0.00951701
-0.0021337
-0.00824991
-0.00057793
-0.00546919
-0.00181434
-0.000333424
0.0020508
-0.0010945
0.00488084
-0.0021011
0.00665097
-0.00322983
0.0076242
-0.00440415
0.00800964
-0.00557922
0.0079458
-0.00672721
0.00750157
-0.00782506
0.00669278
-0.00884454
0.0055037
-0.00974396
0.00390834
-0.010461
0.00189093
-0.0109075
-0.00053167
-0.010969
-0.00328185
-0.0105134
-0.00618605
-0.00941977
-0.00893244
-0.00763946
-0.0110377
-0.00529447
-0.011862
-0.00278538
-0.010759
-0.000791378
-0.00746319
-0.00260571
-0.000328484
0.00237928
-0.00107187
0.00562422
-0.00204444
0.00762354
-0.00311996
0.00869972
-0.0042247
0.00911438
-0.00532191
0.00904301
-0.00639588
0.00857555
-0.0074388
0.0077357
-0.00843998
0.00650487
-0.00937631
0.00484467
-0.0102029
0.00271753
-0.0108432
0.000108623
-0.0111813
-0.00294371
-0.0110592
-0.00630816
-0.0102934
-0.00969826
-0.00873034
-0.0126007
-0.00636772
-0.0142246
-0.00354284
-0.0135839
-0.00106928
-0.00993675
-0.003675
-0.00032362
0.0027029
-0.001036
0.0063366
-0.00194152
0.00852906
-0.00291025
0.00966845
-0.0038739
0.010078
-0.00480715
0.00997627
-0.00570961
0.00947801
-0.00659191
0.008618
-0.00746511
0.00737807
-0.00833119
0.00571074
-0.00917266
0.003559
-0.00994016
0.000876123
-0.0105363
-0.00234759
-0.0108013
-0.00604317
-0.010508
-0.00999157
-0.00939491
-0.0137138
-0.00728516
-0.0163344
-0.00434378
-0.0165252
-0.00141624
-0.0128643
-0.00509124
-0.000334518
0.00303742
-0.0010202
0.00702229
-0.0018342
0.00934305
-0.00264197
0.0104762
-0.00338673
0.0108228
-0.00406098
0.0106505
-0.00468409
0.0101011
-0.00528799
0.00922191
-0.00590777
0.00799786
-0.00657373
0.00637669
-0.00730214
0.00428742
-0.00808229
0.00165627
-0.00885667
-0.0015732
-0.00949454
-0.0054053
-0.00976281
-0.0097233
-0.00931951
-0.0141571
-0.00779303
-0.0178609
-0.00506353
-0.0192547
-0.0018227
-0.0161051
-0.00691394
-0.00038916
0.00342658
-0.0010795
0.00771263
-0.00178811
0.0100517
-0.00237897
0.0110671
-0.00282055
0.0112644
-0.00313477
0.0109647
-0.00336736
0.0103337
-0.00357405
0.0094286
-0.00381388
0.00823769
-0.00414452
0.00670733
-0.00461626
0.00475916
-0.00526185
0.00230185
-0.00607801
-0.000757039
-0.00699355
-0.00448976
-0.00781985
-0.008897
-0.00819494
-0.013782
-0.00758339
-0.0184724
-0.00550363
-0.0213345
-0.00225042
-0.0193583
-0.00916436
-0.000534506
0.00396108
-0.00129424
0.00847236
-0.00188537
0.0106428
-0.00218833
0.01137
-0.00222573
0.0113018
-0.0020679
0.0108069
-0.00179574
0.0100615
-0.00149081
0.00912367
-0.00123376
0.00798064
-0.00110484
0.00657842
-0.00118274
0.00483706
-0.00153985
0.00265896
-0.00223012
-6.67669e-05
-0.00326129
-0.00345858
-0.00453794
-0.00762035
-0.00576248
-0.0125575
-0.00632677
-0.0179081
-0.00538862
-0.0222727
-0.00260917
-0.0221378
-0.0117735
-0.000838418
0.0047995
-0.00175633
0.00939027
-0.00217866
0.0110651
-0.00206435
0.0112557
-0.00154758
0.010785
-0.000774423
0.0100338
0.000130084
0.00915703
0.00105918
0.00819457
0.00191542
0.0071244
0.00260398
0.00588985
0.00302755
0.00441349
0.00308475
0.00260177
0.00267361
0.000344377
0.00170738
-0.00249236
0.000160408
-0.00607338
-0.00181764
-0.0105794
-0.00368929
-0.0160365
-0.00436171
-0.0216002
-0.00272058
-0.0237789
-0.0144941
-0.00136628
0.00616578
-0.00247695
0.0105009
-0.00249818
0.0110864
-0.00166803
0.0104256
-0.000334915
0.00945189
0.00125542
0.00844343
0.00293727
0.00747518
0.00458905
0.0065428
0.00611006
0.00560338
0.00740415
0.00459578
0.0083691
0.00344854
0.00888979
0.00208107
0.00883397
0.000400204
0.00805502
-0.00171342
0.0064125
-0.00443086
0.00385902
-0.00802593
0.000695418
-0.0128729
-0.00197894
-0.0189259
-0.00228997
-0.0234679
-0.0167841
-0.00213788
0.00830366
-0.00294535
0.0113084
-0.00174594
0.00988696
0.00043149
0.00824813
0.00296499
0.00691839
0.00556949
0.00583893
0.00809624
0.00494842
0.0104517
0.00418734
0.0125635
0.00349157
0.0143582
0.00280105
0.0157491
0.0020577
0.0166274
0.00120274
0.0168537
0.0001739
0.0162528
-0.00111251
0.0146058
-0.00278382
0.0116751
-0.00509524
0.00737061
-0.00856839
0.00238424
-0.0139395
-0.000912427
-0.0201712
-0.0176965
-0.00247899
0.0107827
-4.5927e-06
0.00883401
0.00417338
0.00570898
0.0082992
0.0041223
0.0120616
0.00315595
0.0154345
0.00246606
0.0184231
0.00195979
0.0210373
0.00157315
0.0232766
0.00125227
0.025121
0.000956714
0.0265244
0.000654258
0.0274078
0.00031932
0.0276536
-7.19152e-05
0.0270988
-0.000557696
0.0255011
-0.0011861
0.0224975
-0.00209164
0.0175835
-0.00365443
0.0103764
-0.00673241
0.00245949
-0.0122542
-0.015237
0.0107827
0.0196167
0.0253256
0.0294479
0.0326039
0.03507
0.0370297
0.0386029
0.0398552
0.0408119
0.0414661
0.0417855
0.0417135
0.0411559
0.0399698
0.0378781
0.0342237
0.0274913
0.015237
)
;

boundaryField
{
    movingWall
    {
        type            calculated;
        value           uniform 0;
    }
    fixedWalls
    {
        type            calculated;
        value           uniform 0;
    }
    frontAndBack
    {
        type            empty;
    }
}


// ************************************************************************* //
