/*--------------------------------*- C++ -*----------------------------------*\
  =========                 |
  \\      /  F ield         | OpenFOAM: The Open Source CFD Toolbox
   \\    /   O peration     | Website:  https://openfoam.org
    \\  /    A nd           | Version:  13
     \\/     M anipulation  |
\*---------------------------------------------------------------------------*/
FoamFile
{
    format      ascii;
    class       volVectorField;
    location    "23";
    object      U;
}
// * * * * * * * * * * * * * * * * * * * * * * * * * * * * * * * * * * * * * //

dimensions      [0 1 -1 0 0 0 0];

internalField   nonuniform List<vector> 
400
(
(0.00016363 -0.000166993 0)
(-0.000161224 4.42543e-05 0)
(-0.00150723 0.000272161 0)
(-0.00366361 0.000417624 0)
(-0.00630031 0.000493684 0)
(-0.00912856 0.000520595 0)
(-0.0119095 0.000508097 0)
(-0.0144223 0.000455939 0)
(-0.0164423 0.000358578 0)
(-0.0177402 0.000211645 0)
(-0.0181064 1.85901e-05 0)
(-0.0173952 -0.000204199 0)
(-0.0155796 -0.000425107 0)
(-0.0127996 -0.000600727 0)
(-0.00938282 -0.000685304 0)
(-0.00581964 -0.000645037 0)
(-0.00268185 -0.000472181 0)
(-0.000489369 -0.00019374 0)
(0.000468007 0.000113864 0)
(0.000287171 0.000280617 0)
(-5.83721e-05 0.000159343 0)
(-0.00199226 0.00186487 0)
(-0.00614237 0.00360114 0)
(-0.0119912 0.00479778 0)
(-0.0188246 0.00542297 0)
(-0.0260027 0.00554989 0)
(-0.0329511 0.00522994 0)
(-0.0391215 0.00447343 0)
(-0.0439704 0.00327417 0)
(-0.0469747 0.00165065 0)
(-0.0476882 -0.000312895 0)
(-0.0458314 -0.00243886 0)
(-0.0413935 -0.00445324 0)
(-0.0347168 -0.00601734 0)
(-0.026528 -0.00679681 0)
(-0.0178835 -0.00655918 0)
(-0.0100068 -0.00527515 0)
(-0.00402459 -0.00319442 0)
(-0.000634476 -0.000903227 0)
(0.000195159 0.00051548 0)
(-0.000347022 0.00166593 0)
(-0.00425033 0.00617562 0)
(-0.0112546 0.0101713 0)
(-0.020476 0.0128691 0)
(-0.0308885 0.0142236 0)
(-0.0416253 0.0143574 0)
(-0.0518923 0.0133618 0)
(-0.0609211 0.011265 0)
(-0.0679578 0.00808341 0)
(-0.0722932 0.00390338 0)
(-0.0733369 -0.0010383 0)
(-0.0707249 -0.00630424 0)
(-0.06444 -0.0112575 0)
(-0.0549149 -0.0151305 0)
(-0.0430819 -0.0171705 0)
(-0.0303255 -0.0168466 0)
(-0.018301 -0.0140758 0)
(-0.00861197 -0.0093956 0)
(-0.00241587 -0.0040454 0)
(1.26969e-05 -7.91019e-05 0)
(-0.000607526 0.00438042 0)
(-0.00642035 0.0129918 0)
(-0.0161597 0.019869 0)
(-0.02851 0.0243391 0)
(-0.0421314 0.0264612 0)
(-0.0559863 0.026445 0)
(-0.0691425 0.0244314 0)
(-0.0806975 0.0204731 0)
(-0.089764 0.0146203 0)
(-0.0955029 0.0070492 0)
(-0.0971992 -0.00181888 0)
(-0.0943733 -0.0112419 0)
(-0.0869138 -0.0201557 0)
(-0.0752097 -0.0272724 0)
(-0.0602478 -0.031298 0)
(-0.0436209 -0.0312644 0)
(-0.0273792 -0.0269181 0)
(-0.013685 -0.0190436 0)
(-0.00434513 -0.00958418 0)
(-0.000144375 -0.00161225 0)
(-0.000831965 0.00819408 0)
(-0.0083696 0.0221084 0)
(-0.0206081 0.0324014 0)
(-0.0358075 0.0388202 0)
(-0.0523313 0.0416886 0)
(-0.0690121 0.0413741 0)
(-0.0848407 0.0380914 0)
(-0.0988461 0.0319203 0)
(-0.110064 0.0229393 0)
(-0.117554 0.0114016 0)
(-0.120463 -0.00210301 0)
(-0.118132 -0.0165395 0)
(-0.11024 -0.0304038 0)
(-0.0969784 -0.041824 0)
(-0.0792324 -0.048826 0)
(-0.0586989 -0.0497925 0)
(-0.0378341 -0.0440647 0)
(-0.0195232 -0.032513 0)
(-0.00649994 -0.0177858 0)
(-0.000288375 -0.00413335 0)
(-0.00101901 0.0129658 0)
(-0.0100397 0.033262 0)
(-0.0244535 0.0474646 0)
(-0.0421515 0.0559993 0)
(-0.0612448 0.0596176 0)
(-0.0804798 0.0589297 0)
(-0.0988234 0.0542576 0)
(-0.115293 0.0457082 0)
(-0.128895 0.033363 0)
(-0.13861 0.0175056 0)
(-0.143434 -0.0011687 0)
(-0.142463 -0.0213947 0)
(-0.135047 -0.0412627 0)
(-0.121014 -0.0582763 0)
(-0.100956 -0.0696216 0)
(-0.0765153 -0.072732 0)
(-0.0505112 -0.0661571 0)
(-0.026717 -0.0505333 0)
(-0.00916206 -0.0291648 0)
(-0.000460717 -0.00778789 0)
(-0.00116343 0.0185343 0)
(-0.0113745 0.0461271 0)
(-0.0275538 0.064679 0)
(-0.0473036 0.0755035 0)
(-0.0685412 0.0799262 0)
(-0.0899744 0.0788886 0)
(-0.110597 0.0728582 0)
(-0.129472 0.061966 0)
(-0.145624 0.0462577 0)
(-0.157996 0.0259733 0)
(-0.16544 0.00181046 0)
(-0.166777 -0.0248505 0)
(-0.160937 -0.0517852 0)
(-0.147222 -0.0758839 0)
(-0.1257 -0.0933501 0)
(-0.0976916 -0.100309 0)
(-0.0661963 -0.093956 0)
(-0.0359419 -0.0741249 0)
(-0.0126928 -0.0445642 0)
(-0.000711241 -0.0128993 0)
(-0.00125809 0.0247087 0)
(-0.0123135 0.0603054 0)
(-0.0297586 0.0835639 0)
(-0.0509923 0.0968405 0)
(-0.0738007 0.102161 0)
(-0.0968981 0.100884 0)
(-0.119355 0.0936659 0)
(-0.140335 0.0806619 0)
(-0.15895 0.0618389 0)
(-0.174166 0.0373057 0)
(-0.18475 0.00763217 0)
(-0.189275 -0.0258485 0)
(-0.186228 -0.0607594 0)
(-0.174267 -0.0934816 0)
(-0.152688 -0.119182 0)
(-0.122114 -0.132333 0)
(-0.0853161 -0.128065 0)
(-0.0478056 -0.104473 0)
(-0.0174923 -0.0651587 0)
(-0.0011014 -0.0199946 0)
(-0.00129849 0.0312673 0)
(-0.0128117 0.0753262 0)
(-0.0309411 0.103528 0)
(-0.0529589 0.119366 0)
(-0.076575 0.125671 0)
(-0.100549 0.124304 0)
(-0.124074 0.11616 0)
(-0.146474 0.101431 0)
(-0.167027 0.0799743 0)
(-0.184819 0.0516851 0)
(-0.198645 0.0168682 0)
(-0.206943 -0.0233828 0)
(-0.207834 -0.0667761 0)
(-0.199313 -0.109419 0)
(-0.179703 -0.145561 0)
(-0.148493 -0.167829 0)
(-0.107573 -0.16853 0)
(-0.0626676 -0.142665 0)
(-0.0239747 -0.0923876 0)
(-0.00171268 -0.0298217 0)
(-0.00128978 0.0379748 0)
(-0.0128768 0.0906703 0)
(-0.0310624 0.123881 0)
(-0.0530475 0.142271 0)
(-0.0765052 0.149564 0)
(-0.100274 0.148213 0)
(-0.123712 0.139414 0)
(-0.146365 0.123432 0)
(-0.16776 0.100003 0)
(-0.187231 0.0687598 0)
(-0.20376 0.0296256 0)
(-0.215849 -0.0167419 0)
(-0.221453 -0.0684293 0)
(-0.218032 -0.121647 0)
(-0.202886 -0.170097 0)
(-0.173981 -0.204681 0)
(-0.131516 -0.214314 0)
(-0.0803619 -0.189232 0)
(-0.0325165 -0.127781 0)
(-0.00265786 -0.0433629 0)
(-0.00125671 0.0446238 0)
(-0.0126197 0.105829 0)
(-0.03026 0.143875 0)
(-0.0513256 0.164594 0)
(-0.0734798 0.172699 0)
(-0.0956774 0.171325 0)
(-0.117486 0.162053 0)
(-0.138732 0.145269 0)
(-0.159278 0.120626 0)
(-0.178828 0.0874799 0)
(-0.196741 0.0453146 0)
(-0.211834 -0.00580722 0)
(-0.222202 -0.0646555 0)
(-0.225081 -0.128024 0)
(-0.216932 -0.189706 0)
(-0.19404 -0.239454 0)
(-0.154146 -0.262756 0)
(-0.0998038 -0.243481 0)
(-0.0433301 -0.172609 0)
(-0.00409147 -0.0618327 0)
(-0.00125767 0.0511113 0)
(-0.0123221 0.120409 0)
(-0.0289506 0.162785 0)
(-0.0482152 0.185278 0)
(-0.0677952 0.193719 0)
(-0.086826 0.19204 0)
(-0.105152 0.182285 0)
(-0.12294 0.165034 0)
(-0.140458 0.139911 0)
(-0.157879 0.10605 0)
(-0.175096 0.0625002 0)
(-0.191497 0.00865653 0)
(-0.20567 -0.0551669 0)
(-0.215089 -0.126846 0)
(-0.215848 -0.201098 0)
(-0.20279 -0.267612 0)
(-0.170784 -0.309258 0)
(-0.118558 -0.302712 0)
(-0.0562095 -0.227264 0)
(-0.00621329 -0.0866232 0)
(-0.00140722 0.0575635 0)
(-0.0125236 0.134279 0)
(-0.0279368 0.18001 0)
(-0.0445955 0.203233 0)
(-0.0602569 0.211124 0)
(-0.0743734 0.208533 0)
(-0.0871777 0.198033 0)
(-0.0992491 0.180454 0)
(-0.111301 0.155463 0)
(-0.124027 0.122056 0)
(-0.137937 0.0789318 0)
(-0.153149 0.0248591 0)
(-0.169067 -0.0408459 0)
(-0.183923 -0.117508 0)
(-0.194163 -0.201608 0)
(-0.19392 -0.284246 0)
(-0.175436 -0.347506 0)
(-0.132578 -0.361602 0)
(-0.0701232 -0.290323 0)
(-0.00925324 -0.119119 0)
(-0.00191717 0.0645332 0)
(-0.0141433 0.147765 0)
(-0.0284984 0.195173 0)
(-0.0418158 0.217383 0)
(-0.0521145 0.223316 0)
(-0.0594373 0.218851 0)
(-0.0645928 0.207096 0)
(-0.0686578 0.18913 0)
(-0.0728107 0.164706 0)
(-0.0782423 0.132764 0)
(-0.086061 0.0917904 0)
(-0.0971451 0.0400857 0)
(-0.111877 -0.0239149 0)
(-0.129669 -0.101056 0)
(-0.148135 -0.190167 0)
(-0.161882 -0.285285 0)
(-0.161614 -0.370424 0)
(-0.13632 -0.412188 0)
(-0.0826992 -0.357457 0)
(-0.0133871 -0.160226 0)
(-0.00315572 0.0732918 0)
(-0.0186264 0.161848 0)
(-0.0323732 0.20812 0)
(-0.0414277 0.226589 0)
(-0.0445658 0.228553 0)
(-0.0429237 0.220941 0)
(-0.0381624 0.207258 0)
(-0.0319537 0.188729 0)
(-0.0259283 0.165157 0)
(-0.0216955 0.135482 0)
(-0.0208473 0.0981096 0)
(-0.0249103 0.0511031 0)
(-0.0352019 -0.00767083 0)
(-0.0524843 -0.0802818 0)
(-0.0761778 -0.167953 0)
(-0.102723 -0.268755 0)
(-0.123215 -0.371692 0)
(-0.123126 -0.444765 0)
(-0.0896861 -0.420699 0)
(-0.0184223 -0.209561 0)
(-0.00563318 0.0863199 0)
(-0.0279255 0.178248 0)
(-0.0411948 0.218551 0)
(-0.0439485 0.229183 0)
(-0.0369832 0.22457 0)
(-0.0233834 0.212395 0)
(-0.00599104 0.196164 0)
(0.0128681 0.176979 0)
(0.0311794 0.154564 0)
(0.0470521 0.127847 0)
(0.0585907 0.0952554 0)
(0.0638297 0.0548481 0)
(0.0607363 0.00432812 0)
(0.0473488 -0.0590027 0)
(0.0222698 -0.138149 0)
(-0.0138211 -0.23534 0)
(-0.0547756 -0.347094 0)
(-0.0854593 -0.449367 0)
(-0.0844707 -0.468809 0)
(-0.0231512 -0.265024 0)
(-0.00990302 0.108861 0)
(-0.043545 0.199117 0)
(-0.0535944 0.224546 0)
(-0.0441519 0.221488 0)
(-0.0212391 0.207465 0)
(0.00898734 0.189712 0)
(0.0424361 0.170885 0)
(0.0763251 0.151489 0)
(0.108511 0.130938 0)
(0.137085 0.108087 0)
(0.160114 0.0814557 0)
(0.175475 0.0492886 0)
(0.18074 0.00950179 0)
(0.173143 -0.0405511 0)
(0.149691 -0.104546 0)
(0.108001 -0.187705 0)
(0.0494319 -0.29486 0)
(-0.0145877 -0.416665 0)
(-0.0578322 -0.487747 0)
(-0.0247837 -0.32295 0)
(-0.0177355 0.151993 0)
(-0.0614525 0.22372 0)
(-0.0529053 0.217274 0)
(-0.0156998 0.194082 0)
(0.0332707 0.169891 0)
(0.0856615 0.147802 0)
(0.137586 0.128204 0)
(0.186832 0.110471 0)
(0.231849 0.0935103 0)
(0.27125 0.0760883 0)
(0.303489 0.0569062 0)
(0.326669 0.0345631 0)
(0.338365 0.00748085 0)
(0.335522 -0.0263682 0)
(0.31427 -0.0701422 0)
(0.269947 -0.129735 0)
(0.198302 -0.215978 0)
(0.10164 -0.337998 0)
(0.00354239 -0.456453 0)
(-0.0161708 -0.368812 0)
(-0.0241024 0.208541 0)
(-0.0377146 0.230638 0)
(0.037378 0.17657 0)
(0.124849 0.136589 0)
(0.205111 0.108563 0)
(0.276679 0.0876062 0)
(0.340305 0.0715238 0)
(0.396372 0.0587059 0)
(0.445007 0.04774 0)
(0.485988 0.0374775 0)
(0.518723 0.0269193 0)
(0.541951 0.0151717 0)
(0.55372 0.00132429 0)
(0.551307 -0.0157152 0)
(0.530817 -0.0377882 0)
(0.486696 -0.0688096 0)
(0.410455 -0.118952 0)
(0.290382 -0.209334 0)
(0.132846 -0.338304 0)
(0.0385219 -0.340255 0)
(0.241956 0.109217 0)
(0.313707 0.0972387 0)
(0.444681 0.0570231 0)
(0.549926 0.0350974 0)
(0.624119 0.0236783 0)
(0.679306 0.0166234 0)
(0.722804 0.0118981 0)
(0.757792 0.00864168 0)
(0.785876 0.00625028 0)
(0.807881 0.00427969 0)
(0.823988 0.00241743 0)
(0.833803 0.000449384 0)
(0.836424 -0.00180532 0)
(0.830385 -0.00450238 0)
(0.813318 -0.00796898 0)
(0.781269 -0.0128841 0)
(0.725889 -0.0212989 0)
(0.63001 -0.0381894 0)
(0.4593 -0.085696 0)
(0.304875 -0.125723 0)
)
;

boundaryField
{
    movingWall
    {
        type            fixedValue;
        value           uniform (1 0 0);
    }
    fixedWalls
    {
        type            fixedValue;
        value           uniform (0 0 0);
    }
    frontAndBack
    {
        type            empty;
    }
}


// ************************************************************************* //
