/*--------------------------------*- C++ -*----------------------------------*\
  =========                 |
  \\      /  F ield         | OpenFOAM: The Open Source CFD Toolbox
   \\    /   O peration     | Website:  https://openfoam.org
    \\  /    A nd           | Version:  13
     \\/     M anipulation  |
\*---------------------------------------------------------------------------*/
FoamFile
{
    format      ascii;
    class       volVectorField;
    location    "23";
    object      U_0;
}
// * * * * * * * * * * * * * * * * * * * * * * * * * * * * * * * * * * * * * //

dimensions      [0 1 -1 0 0 0 0];

internalField   nonuniform List<vector> 
400
(
(0.000160669 -0.00016396 0)
(-0.000164675 4.63475e-05 0)
(-0.00150249 0.000272599 0)
(-0.00364334 0.000417098 0)
(-0.00625987 0.000492527 0)
(-0.00906536 0.000518889 0)
(-0.0118227 0.0005059 0)
(-0.0143134 0.000453433 0)
(-0.0163151 0.000356136 0)
(-0.0176016 0.000209803 0)
(-0.017966 1.79156e-05 0)
(-0.0172641 -0.000203302 0)
(-0.015469 -0.000422622 0)
(-0.012718 -0.000597161 0)
(-0.00933401 -0.00068164 0)
(-0.0058012 -0.000642467 0)
(-0.00268542 -0.000471671 0)
(-0.000502928 -0.000195648 0)
(0.000455931 0.000110112 0)
(0.000283454 0.000276991 0)
(-6.00066e-05 0.000162648 0)
(-0.00197846 0.00185399 0)
(-0.00609592 0.00357554 0)
(-0.0118964 0.00476126 0)
(-0.0186727 0.00537981 0)
(-0.0257899 0.00550387 0)
(-0.0326783 0.00518497 0)
(-0.0387954 0.00443412 0)
(-0.0436036 0.0032458 0)
(-0.0465858 0.00163843 0)
(-0.0473004 -0.000305065 0)
(-0.0454702 -0.00240982 0)
(-0.0410826 -0.00440571 0)
(-0.0344741 -0.00595821 0)
(-0.0263617 -0.00673625 0)
(-0.0177899 -0.00650831 0)
(-0.00997075 -0.00524283 0)
(-0.0040233 -0.00318403 0)
(-0.000644304 -0.000910149 0)
(0.000190762 0.000503236 0)
(-0.000345929 0.00165751 0)
(-0.00421298 0.00612925 0)
(-0.0111568 0.0100907 0)
(-0.0202968 0.0127645 0)
(-0.0306181 0.0141055 0)
(-0.041261 0.0142359 0)
(-0.0514388 0.0132472 0)
(-0.0603908 0.011169 0)
(-0.0673712 0.00801809 0)
(-0.0716782 0.00387992 0)
(-0.0727266 -0.00101248 0)
(-0.0701546 -0.00622814 0)
(-0.063942 -0.0111384 0)
(-0.0545141 -0.0149844 0)
(-0.0427911 -0.0170196 0)
(-0.0301425 -0.0167155 0)
(-0.0182087 -0.0139844 0)
(-0.00858204 -0.00935274 0)
(-0.00241559 -0.00404364 0)
(8.91279e-06 -9.64162e-05 0)
(-0.000603768 0.00434631 0)
(-0.0063586 0.0128832 0)
(-0.0160101 0.0197006 0)
(-0.0282486 0.0241316 0)
(-0.0417494 0.0262342 0)
(-0.0554837 0.0262169 0)
(-0.068528 0.0242213 0)
(-0.0799885 0.0203013 0)
(-0.0889871 0.0145074 0)
(-0.0946923 0.00701281 0)
(-0.0963942 -0.00176773 0)
(-0.0936151 -0.0111029 0)
(-0.086241 -0.0199416 0)
(-0.0746533 -0.0270094 0)
(-0.0598267 -0.0310228 0)
(-0.0433379 -0.0310176 0)
(-0.0272194 -0.0267347 0)
(-0.0136181 -0.0189418 0)
(-0.00433078 -0.00955665 0)
(-0.000147655 -0.00162846 0)
(-0.000825937 0.00812136 0)
(-0.00828718 0.021914 0)
(-0.0204153 0.032118 0)
(-0.0354789 0.0384827 0)
(-0.0518598 0.0413279 0)
(-0.0684008 0.0410182 0)
(-0.0841013 0.0377686 0)
(-0.0979997 0.0316601 0)
(-0.10914 0.0227706 0)
(-0.116589 0.0113485 0)
(-0.1195 -0.0020261 0)
(-0.117215 -0.0163325 0)
(-0.109411 -0.0300841 0)
(-0.096274 -0.041427 0)
(-0.0786799 -0.0484024 0)
(-0.0583096 -0.0494006 0)
(-0.0375994 -0.0437579 0)
(-0.0194143 -0.032324 0)
(-0.00646945 -0.0177127 0)
(-0.00029134 -0.00414079 0)
(-0.00101144 0.0128445 0)
(-0.00994391 0.0329642 0)
(-0.0242334 0.0470462 0)
(-0.0417814 0.0555131 0)
(-0.0607194 0.0591066 0)
(-0.0798043 0.058432 0)
(-0.0980115 0.0538107 0)
(-0.114367 0.0453502 0)
(-0.127884 0.0331303 0)
(-0.13755 0.0174283 0)
(-0.142366 -0.00107264 0)
(-0.141431 -0.0211243 0)
(-0.134095 -0.0408378 0)
(-0.120183 -0.0577387 0)
(-0.100282 -0.0690336 0)
(-0.0760198 -0.0721696 0)
(-0.0501972 -0.0656955 0)
(-0.0265618 -0.0502266 0)
(-0.00911331 -0.0290237 0)
(-0.000463309 -0.00777801 0)
(-0.00115541 0.0183595 0)
(-0.0112754 0.0457176 0)
(-0.0273281 0.0641169 0)
(-0.0469261 0.0748608 0)
(-0.0680084 0.0792587 0)
(-0.0892924 0.0782443 0)
(-0.10978 0.0722828 0)
(-0.12854 0.0615051 0)
(-0.144605 0.0459539 0)
(-0.156922 0.0258616 0)
(-0.164346 0.00191267 0)
(-0.165702 -0.0245311 0)
(-0.159922 -0.0512676 0)
(-0.14631 -0.0752122 0)
(-0.124933 -0.092594 0)
(-0.0971039 -0.0995593 0)
(-0.0658056 -0.0933125 0)
(-0.0357379 -0.0736698 0)
(-0.0126235 -0.0443311 0)
(-0.00071314 -0.0128624 0)
(-0.00125094 0.0244814 0)
(-0.0122232 0.0597873 0)
(-0.0295526 0.0828626 0)
(-0.0506474 0.0960471 0)
(-0.0733144 0.101344 0)
(-0.0962767 0.1001 0)
(-0.118612 0.0929677 0)
(-0.139488 0.0801006 0)
(-0.158021 0.0614617 0)
(-0.173181 0.0371511 0)
(-0.183735 0.00772497 0)
(-0.188259 -0.0255016 0)
(-0.185245 -0.0601739 0)
(-0.173355 -0.092699 0)
(-0.151888 -0.118273 0)
(-0.121471 -0.131398 0)
(-0.084865 -0.127224 0)
(-0.0475558 -0.103844 0)
(-0.017401 -0.0648092 0)
(-0.00110201 -0.0199196 0)
(-0.00129358 0.0309957 0)
(-0.012743 0.0747152 0)
(-0.0307811 0.102707 0)
(-0.0526884 0.118443 0)
(-0.0761917 0.124725 0)
(-0.100059 0.1234 0)
(-0.123489 0.115357 0)
(-0.145808 0.100783 0)
(-0.166297 0.079531 0)
(-0.184042 0.0514859 0)
(-0.197835 0.0169392 0)
(-0.206117 -0.0230323 0)
(-0.20701 -0.0661568 0)
(-0.198516 -0.108565 0)
(-0.178967 -0.144538 0)
(-0.147863 -0.166736 0)
(-0.1071 -0.1675 0)
(-0.062385 -0.141849 0)
(-0.0238622 -0.0919011 0)
(-0.00171114 -0.0296967 0)
(-0.00128829 0.0376739 0)
(-0.0128409 0.0899948 0)
(-0.0309726 0.122975 0)
(-0.0528894 0.141253 0)
(-0.0762772 0.148526 0)
(-0.0999816 0.147225 0)
(-0.123364 0.138539 0)
(-0.145973 0.122725 0)
(-0.167335 0.0995145 0)
(-0.18678 0.0685261 0)
(-0.203285 0.0296713 0)
(-0.215352 -0.0164077 0)
(-0.220931 -0.0678139 0)
(-0.217489 -0.120776 0)
(-0.202339 -0.169022 0)
(-0.173463 -0.203487 0)
(-0.131084 -0.213134 0)
(-0.0800755 -0.18824 0)
(-0.0323886 -0.127148 0)
(-0.00265304 -0.0431768 0)
(-0.00125936 0.0443143 0)
(-0.012625 0.105128 0)
(-0.0302583 0.14293 0)
(-0.051309 0.163532 0)
(-0.0734468 0.171617 0)
(-0.0956315 0.1703 0)
(-0.117434 0.161151 0)
(-0.138683 0.144545 0)
(-0.159236 0.120124 0)
(-0.178792 0.0872347 0)
(-0.196702 0.0453437 0)
(-0.211777 -0.00549942 0)
(-0.222105 -0.0640765 0)
(-0.224922 -0.127193 0)
(-0.216702 -0.188657 0)
(-0.193749 -0.238248 0)
(-0.153841 -0.261503 0)
(-0.0995604 -0.24236 0)
(-0.0432003 -0.17184 0)
(-0.004082 -0.0615783 0)
(-0.00126454 0.0508173 0)
(-0.0123719 0.119728 0)
(-0.0290452 0.161856 0)
(-0.0483541 0.184229 0)
(-0.0679765 0.192651 0)
(-0.087051 0.191034 0)
(-0.105424 0.181408 0)
(-0.123262 0.164338 0)
(-0.140828 0.139438 0)
(-0.158289 0.105825 0)
(-0.175529 0.0625321 0)
(-0.191923 0.00894068 0)
(-0.206053 -0.0546435 0)
(-0.215387 -0.126101 0)
(-0.216023 -0.200149 0)
(-0.202823 -0.266491 0)
(-0.170697 -0.308039 0)
(-0.118417 -0.301547 0)
(-0.0561007 -0.226397 0)
(-0.006198 -0.0863008 0)
(-0.00141765 0.0573093 0)
(-0.0126154 0.133665 0)
(-0.028124 0.179155 0)
(-0.0448851 0.202257 0)
(-0.0606463 0.210128 0)
(-0.0748595 0.2076 0)
(-0.0877578 0.19723 0)
(-0.0999183 0.179831 0)
(-0.11205 0.155056 0)
(-0.12484 0.121881 0)
(-0.138789 0.0789877 0)
(-0.154007 0.0251309 0)
(-0.169887 -0.0403809 0)
(-0.184652 -0.116871 0)
(-0.194747 -0.200811 0)
(-0.194311 -0.283295 0)
(-0.17562 -0.346431 0)
(-0.132596 -0.360504 0)
(-0.0700657 -0.28943 0)
(-0.00923262 -0.118741 0)
(-0.00192984 0.0643401 0)
(-0.0142682 0.147261 0)
(-0.0287607 0.194446 0)
(-0.0422301 0.216537 0)
(-0.0526768 0.222446 0)
(-0.0601387 0.218038 0)
(-0.0654216 0.206405 0)
(-0.0695988 0.188609 0)
(-0.0738446 0.164384 0)
(-0.0793448 0.132652 0)
(-0.087203 0.0918801 0)
(-0.0982921 0.0403533 0)
(-0.112989 -0.0235016 0)
(-0.130698 -0.100526 0)
(-0.149025 -0.189535 0)
(-0.162571 -0.284547 0)
(-0.162059 -0.369574 0)
(-0.136519 -0.411265 0)
(-0.0827221 -0.356634 0)
(-0.0133657 -0.159821 0)
(-0.00316852 0.0731742 0)
(-0.0187681 0.161485 0)
(-0.0326788 0.207562 0)
(-0.0419181 0.225915 0)
(-0.0452363 0.227847 0)
(-0.0437595 0.220278 0)
(-0.0391417 0.206698 0)
(-0.0330501 0.188317 0)
(-0.0271115 0.164918 0)
(-0.0229331 0.135424 0)
(-0.0221063 0.0982218 0)
(-0.0261585 0.0513597 0)
(-0.0364077 -0.00730649 0)
(-0.0536143 -0.0798463 0)
(-0.0771908 -0.16747 0)
(-0.103566 -0.268225 0)
(-0.12383 -0.371095 0)
(-0.123476 -0.444092 0)
(-0.0898012 -0.420042 0)
(-0.0184098 -0.209175 0)
(-0.00564286 0.0862809 0)
(-0.0280596 0.178039 0)
(-0.0414952 0.218181 0)
(-0.0444417 0.228703 0)
(-0.0376665 0.224048 0)
(-0.0242393 0.211893 0)
(-0.00699053 0.195735 0)
(0.0117591 0.176663 0)
(0.0299983 0.154386 0)
(0.0458381 0.127815 0)
(0.0573795 0.0953619 0)
(0.062652 0.0550705 0)
(0.0596163 0.00463309 0)
(0.0463059 -0.0586528 0)
(0.0213243 -0.137787 0)
(-0.0146382 -0.234979 0)
(-0.0554203 -0.346723 0)
(-0.0858798 -0.448954 0)
(-0.0846563 -0.468375 0)
(-0.0231569 -0.26471 0)
(-0.00990471 0.108885 0)
(-0.0436391 0.199043 0)
(-0.0538263 0.224353 0)
(-0.0445529 0.221196 0)
(-0.021814 0.207119 0)
(0.00825077 0.189363 0)
(0.0415642 0.170576 0)
(0.0753526 0.151253 0)
(0.107476 0.1308 0)
(0.136029 0.108056 0)
(0.159074 0.0815305 0)
(0.174481 0.049454 0)
(0.179815 0.00973197 0)
(0.172301 -0.0402884 0)
(0.14894 -0.104284 0)
(0.107348 -0.187466 0)
(0.0488924 -0.29465 0)
(-0.0149728 -0.416454 0)
(-0.0580326 -0.487515 0)
(-0.0248075 -0.322742 0)
(-0.0177241 0.152044 0)
(-0.0614778 0.223734 0)
(-0.0530108 0.217211 0)
(-0.0159214 0.193942 0)
(0.0329149 0.169698 0)
(0.085169 0.147591 0)
(0.136971 0.128006 0)
(0.186119 0.110312 0)
(0.231072 0.0934101 0)
(0.270445 0.0760572 0)
(0.302693 0.0569464 0)
(0.325913 0.0346661 0)
(0.337675 0.00762941 0)
(0.334914 -0.0261985 0)
(0.313754 -0.069976 0)
(0.269522 -0.129593 0)
(0.197957 -0.215875 0)
(0.101387 -0.337921 0)
(0.00338857 -0.456387 0)
(-0.0162129 -0.368709 0)
(-0.0240843 0.208583 0)
(-0.0376825 0.230682 0)
(0.0373947 0.176577 0)
(0.124815 0.136548 0)
(0.204996 0.108484 0)
(0.276465 0.0875087 0)
(0.339989 0.0714271 0)
(0.395965 0.0586261 0)
(0.444532 0.0476885 0)
(0.485472 0.037462 0)
(0.518202 0.0269426 0)
(0.541462 0.0152293 0)
(0.553289 0.00140607 0)
(0.550951 -0.015623 0)
(0.530541 -0.0377035 0)
(0.486492 -0.0687485 0)
(0.410315 -0.118919 0)
(0.29028 -0.209324 0)
(0.132788 -0.338304 0)
(0.03847 -0.340234 0)
(0.241967 0.10923 0)
(0.313745 0.0972572 0)
(0.444737 0.0570312 0)
(0.549973 0.0350961 0)
(0.62413 0.0236696 0)
(0.679263 0.0166104 0)
(0.7227 0.0118845 0)
(0.757637 0.00863088 0)
(0.785686 0.00624562 0)
(0.807676 0.00428359 0)
(0.823793 0.00242936 0)
(0.833636 0.000466645 0)
(0.836301 -0.00178647 0)
(0.830313 -0.00448389 0)
(0.813296 -0.00795304 0)
(0.781287 -0.0128756 0)
(0.725921 -0.0213027 0)
(0.630038 -0.0382027 0)
(0.459308 -0.0857275 0)
(0.304872 -0.12573 0)
)
;

boundaryField
{
    movingWall
    {
        type            calculated;
        value           uniform (1 0 0);
    }
    fixedWalls
    {
        type            calculated;
        value           uniform (0 0 0);
    }
    frontAndBack
    {
        type            empty;
    }
}


// ************************************************************************* //
