/*--------------------------------*- C++ -*----------------------------------*\
  =========                 |
  \\      /  F ield         | OpenFOAM: The Open Source CFD Toolbox
   \\    /   O peration     | Website:  https://openfoam.org
    \\  /    A nd           | Version:  13
     \\/     M anipulation  |
\*---------------------------------------------------------------------------*/
FoamFile
{
    format      ascii;
    class       volScalarField;
    location    "19";
    object      p;
}
// * * * * * * * * * * * * * * * * * * * * * * * * * * * * * * * * * * * * * //

dimensions      [0 2 -2 0 0 0 0];

internalField   nonuniform List<scalar> 
400
(
1.04274e-09
-0.000473051
-0.00103482
-0.00144635
-0.00159661
-0.00144212
-0.000965321
-0.000163024
0.000949458
0.00232664
0.00388072
0.00547631
0.00693925
0.00808264
0.00874922
0.00886033
0.00845581
0.00771044
0.00691626
0.00640124
0.00047764
-1.16847e-05
-0.000500617
-0.000822839
-0.000921254
-0.000772011
-0.00036073
0.000319461
0.00126128
0.00243184
0.00376087
0.00513515
0.00640464
0.0074057
0.00799906
0.00811413
0.00778322
0.00714943
0.00644259
0.00591676
0.00106119
0.000442266
-7.52354e-05
-0.000370572
-0.000456054
-0.000337845
-7.61712e-06
0.00054756
0.0013337
0.00233575
0.00350298
0.00473984
0.00590868
0.0068499
0.00741951
0.00753504
0.00721101
0.00656263
0.00577454
0.00508687
0.00146477
0.000664107
4.54796e-05
-0.000287687
-0.000409309
-0.000355186
-0.000122131
0.000311909
0.000970848
0.00186175
0.0029549
0.0041684
0.00536517
0.00636989
0.00700816
0.00715991
0.0068051
0.00603381
0.00501896
0.00405157
0.00146892
0.000481215
-0.000263449
-0.000671443
-0.000868781
-0.000915004
-0.000807459
-0.000510228
2.39127e-05
0.000830031
0.00190466
0.00318206
0.0045224
0.0057225
0.00655553
0.00683512
0.00648031
0.0055461
0.00421444
0.00287708
0.000894466
-0.000265063
-0.00113989
-0.00164642
-0.00195613
-0.00214623
-0.00220949
-0.00209089
-0.00171326
-0.00100454
6.93429e-05
0.00147017
0.00306258
0.00461174
0.00581842
0.00639352
0.00615157
0.00508015
0.0033715
0.00156884
-0.000412726
-0.00171968
-0.00272199
-0.00334827
-0.00381131
-0.00420173
-0.00450411
-0.00463998
-0.00449504
-0.00394795
-0.00290881
-0.00136549
0.000572146
0.00264701
0.0044731
0.00561403
0.00571149
0.00461735
0.00250378
0.000124372
-0.00257965
-0.00400405
-0.00512873
-0.0058969
-0.0065608
-0.00722295
-0.0078591
-0.00836541
-0.00858422
-0.00833087
-0.00743495
-0.00579893
-0.0034674
-0.000688694
0.00206679
0.00417042
0.00499511
0.0041351
0.00165551
-0.00141848
-0.00569819
-0.00720541
-0.00844385
-0.00937333
-0.0102865
-0.0113002
-0.012385
-0.0134136
-0.0141823
-0.0144304
-0.0138796
-0.0123023
-0.00961791
-0.00600435
-0.00197985
0.00160998
0.00375598
0.00360526
0.00093398
-0.00292512
-0.00981687
-0.0113676
-0.0127014
-0.0137963
-0.0149913
-0.0164253
-0.0180721
-0.0197886
-0.0213274
-0.022345
-0.0224322
-0.0211838
-0.0183223
-0.0138598
-0.00827412
-0.00259901
0.00167798
0.0030061
0.000555372
-0.00408226
-0.0149388
-0.0164871
-0.0178754
-0.0191007
-0.0205639
-0.0224415
-0.0247242
-0.0272648
-0.0297808
-0.0318477
-0.0329135
-0.0323603
-0.029644
-0.0244956
-0.0172094
-0.00888979
-0.00152166
0.00238249
0.000921233
-0.00426914
-0.0210345
-0.0225223
-0.0238779
-0.0251226
-0.0267524
-0.0290074
-0.031912
-0.035328
-0.0389491
-0.0422786
-0.0446258
-0.0451505
-0.0429859
-0.0374885
-0.0285926
-0.0172584
-0.00584138
0.00200713
0.00275527
-0.00235655
-0.0280834
-0.029421
-0.0305709
-0.0315972
-0.0331566
-0.0355911
-0.0389752
-0.0431866
-0.0479011
-0.0525596
-0.0563452
-0.0582042
-0.0569502
-0.0515017
-0.0412854
-0.0268485
-0.0106142
0.00267013
0.00733506
0.00358832
-0.0361673
-0.0371782
-0.0377893
-0.0381671
-0.039244
-0.0415099
-0.0450942
-0.0498809
-0.0555187
-0.0613834
-0.0665409
-0.0697467
-0.069523
-0.0643607
-0.0531146
-0.0356906
-0.0141528
0.00602614
0.0168144
0.016675
-0.0456689
-0.0459362
-0.0453726
-0.0443999
-0.0443939
-0.0460197
-0.0494322
-0.0544829
-0.060758
-0.0675427
-0.0737773
-0.0780378
-0.0785889
-0.0735495
-0.0612419
-0.0408417
-0.0136502
0.0148258
0.0344941
0.0414313
-0.0576157
-0.0561551
-0.0532121
-0.0498244
-0.0479819
-0.048455
-0.0513244
-0.0563287
-0.062927
-0.0702642
-0.0771208
-0.0818801
-0.0825612
-0.0769551
-0.0629333
-0.0390009
-0.00547923
0.032908
0.0648387
0.0834096
-0.0742589
-0.0689189
-0.0612721
-0.0539474
-0.0494602
-0.0483499
-0.0504157
-0.05516
-0.0618271
-0.06936
-0.0763359
-0.0809145
-0.0808505
-0.0735961
-0.0565785
-0.0276694
0.0138554
0.0648241
0.113736
0.149424
-0.102658
-0.0866671
-0.0691733
-0.0558465
-0.0480521
-0.0451893
-0.046446
-0.0509313
-0.0575803
-0.0650911
-0.0718295
-0.0757188
-0.0742339
-0.064439
-0.0431778
-0.00743444
0.0450001
0.113662
0.190005
0.256848
-0.174767
-0.113872
-0.0732414
-0.0518781
-0.0412713
-0.0373996
-0.0385458
-0.0433274
-0.0503083
-0.0579669
-0.0645652
-0.0678738
-0.0651472
-0.0531016
-0.0279109
0.0148613
0.0804729
0.174859
0.302612
0.450882
-0.354651
-0.154269
-0.0699443
-0.0427267
-0.0314246
-0.0274333
-0.0290979
-0.0346781
-0.0423926
-0.0505664
-0.0573782
-0.0606018
-0.057487
-0.0446537
-0.0176531
0.0295754
0.106651
0.231394
0.432845
0.734082
)
;

boundaryField
{
    movingWall
    {
        type            zeroGradient;
    }
    fixedWalls
    {
        type            zeroGradient;
    }
    frontAndBack
    {
        type            empty;
    }
}


// ************************************************************************* //
