/*--------------------------------*- C++ -*----------------------------------*\
  =========                 |
  \\      /  F ield         | OpenFOAM: The Open Source CFD Toolbox
   \\    /   O peration     | Website:  https://openfoam.org
    \\  /    A nd           | Version:  13
     \\/     M anipulation  |
\*---------------------------------------------------------------------------*/
FoamFile
{
    format      ascii;
    class       surfaceScalarField;
    location    "19";
    object      phi;
}
// * * * * * * * * * * * * * * * * * * * * * * * * * * * * * * * * * * * * * //

dimensions      [0 3 -1 0 0 0 0];

internalField   nonuniform List<scalar> 
760
(
2.5975e-06
-2.59753e-06
-3.87163e-05
4.13137e-05
-0.000124821
8.61052e-05
-0.000241068
0.000116247
-0.000372756
0.000131689
-0.000507512
0.000134755
-0.000634498
0.000126987
-0.000743234
0.000108737
-0.000823045
7.98117e-05
-0.000863562
4.05181e-05
-0.000856272
-7.28917e-06
-0.000796852
-5.94209e-05
-0.000687621
-0.000109231
-0.000539317
-0.000148304
-0.00037117
-0.000168148
-0.00020853
-0.000162641
-7.7917e-05
-0.000130613
-1.17749e-07
-7.77991e-05
1.85997e-05
-1.87176e-05
1.85999e-05
-4.42364e-05
4.16393e-05
-0.000193181
0.000190259
-0.000435062
0.000327987
-0.000739732
0.000420916
-0.00107573
0.000467682
-0.00141422
0.000473247
-0.00172854
0.000441312
-0.0019929
0.000373091
-0.00218207
0.000268993
-0.00227305
0.000131492
-0.00224832
-3.20155e-05
-0.00210043
-0.000207314
-0.00183653
-0.000373135
-0.00148137
-0.000503458
-0.00107712
-0.000572405
-0.000678365
-0.000561391
-0.000342096
-0.000466882
-0.000113421
-0.000306475
-9.70182e-06
-0.000122435
8.89835e-06
-0.000101754
0.000143393
-0.000368965
0.00045747
-0.000759643
0.000718665
-0.00122926
0.000890532
-0.00173508
0.000973497
-0.00223759
0.000975765
-0.0026996
0.000903325
-0.00308506
0.000758548
-0.0033593
0.000543239
-0.00349135
0.000263535
-0.00345805
-6.5316e-05
-0.00324953
-0.000415835
-0.00287467
-0.000747994
-0.00236509
-0.00101304
-0.00177559
-0.0011619
-0.00117905
-0.00115793
-0.000654289
-0.000991643
-0.000267934
-0.000692829
-5.44173e-05
-0.00033595
-4.55188e-05
-0.000155969
0.000299362
-0.000536727
0.00083823
-0.00106779
0.00124973
-0.00168795
0.00151069
-0.00234457
0.00163011
-0.00299082
0.00162202
-0.00358294
0.00149544
-0.00407842
0.00125403
-0.00443622
0.000901042
-0.00461906
0.000446375
-0.00459779
-8.65933e-05
-0.00435723
-0.000656392
-0.00390277
-0.00120245
-0.00326619
-0.00164962
-0.00250864
-0.00191945
-0.00171766
-0.00194892
-0.000995101
-0.0017142
-0.000435591
-0.00125234
-0.000100781
-0.00067076
-0.0001463
-0.000204511
0.000503873
-0.000688891
0.00132261
-0.00134871
0.00190955
-0.00210638
0.00226835
-0.00290056
0.0024243
-0.00367948
0.00240094
-0.00439573
0.00221169
-0.0050032
0.0018615
-0.00545635
0.00135419
-0.00571192
0.000701945
-0.00573287
-6.56408e-05
-0.00549445
-0.000894811
-0.00499213
-0.00170477
-0.00425051
-0.00239125
-0.00333094
-0.00283902
-0.0023335
-0.00294635
-0.00138746
-0.00266023
-0.000626202
-0.00201359
-0.000151184
-0.00114578
-0.000297484
-0.000246602
0.000750475
-0.00082178
0.00189779
-0.00159551
0.00268328
-0.00247594
0.00314878
-0.00339485
0.00334321
-0.00429772
0.00330381
-0.00513608
0.00305005
-0.00586259
0.00258801
-0.00642884
0.00192045
-0.00678576
0.00105886
-0.00688649
3.50888e-05
-0.00669231
-0.00108899
-0.00618188
-0.0022152
-0.005364
-0.00320913
-0.00429178
-0.00391124
-0.00307317
-0.00416496
-0.00186808
-0.00386532
-0.000861675
-0.00302
-0.00021309
-0.00179436
-0.000510573
-0.00028125
0.00103172
-0.000931548
0.00254808
-0.00180049
0.00355222
-0.00278489
0.00413318
-0.00381185
0.00437017
-0.0048264
0.00431836
-0.00578151
0.00400516
-0.00663113
0.00343763
-0.00732609
0.00261541
-0.00781255
0.00154532
-0.00803328
0.000255816
-0.00793255
-0.00118972
-0.00746604
-0.00268171
-0.00661703
-0.00405814
-0.00541833
-0.00510994
-0.00397501
-0.00560829
-0.00247513
-0.0053652
-0.00116804
-0.00432709
-0.000295834
-0.00266656
-0.000806407
-0.000307155
0.00133888
-0.00101367
0.0032546
-0.00195436
0.0044929
-0.00301772
0.00519654
-0.00412842
0.00548088
-0.00523326
0.0054232
-0.00628923
0.00506113
-0.00725451
0.00440291
-0.00808225
0.00344314
-0.00871673
0.0021798
-0.00909234
0.00063142
-0.00913631
-0.00114575
-0.00877768
-0.00304034
-0.00796508
-0.00487075
-0.00669557
-0.00637944
-0.0050523
-0.00725156
-0.00323776
-0.00717974
-0.00157126
-0.00599359
-0.000409874
-0.00382795
-0.00121628
-0.000323232
0.00166211
-0.00106413
0.0039955
-0.00204797
0.00547675
-0.00315752
0.00630608
-0.00431687
0.00664023
-0.00547666
0.00658299
-0.0066005
0.00618497
-0.00765419
0.0054566
-0.00859745
0.0043864
-0.00937781
0.00296015
-0.00992661
0.00118022
-0.0101585
-0.000913833
-0.0099771
-0.00322177
-0.00929069
-0.00555716
-0.00804464
-0.00762549
-0.00627311
-0.00902309
-0.00416306
-0.0092898
-0.00209278
-0.00806387
-0.000566628
-0.0053541
-0.00178291
-0.000329597
0.00199171
-0.00108175
0.00474765
-0.00207596
0.00647096
-0.00319072
0.00742084
-0.00435107
0.00780058
-0.00551335
0.00774526
-0.00665036
0.00732199
-0.00773919
0.00654543
-0.00875128
0.0053985
-0.00964438
0.00385325
-0.0103556
0.00189142
-0.0107965
-0.000472926
-0.0108531
-0.00316512
-0.0103953
-0.00601502
-0.00930531
-0.00871545
-0.0075382
-0.0107902
-0.00521801
-0.01161
-0.00274194
-0.0105399
-0.000778044
-0.007318
-0.00256095
-0.000329013
0.00232072
-0.00107167
0.00549031
-0.00204182
0.00744112
-0.00311386
0.00849288
-0.00421516
0.00890187
-0.00530983
0.00883993
-0.00638256
0.00839472
-0.00742529
0.00758816
-0.00842653
0.00639974
-0.00936196
0.00478868
-0.0101853
0.00271476
-0.0108189
0.000160659
-0.0111465
-0.00283755
-0.0110112
-0.00615026
-0.0102331
-0.00949353
-0.00866417
-0.0123592
-0.00630778
-0.0139664
-0.00350295
-0.0133448
-0.00105497
-0.00976598
-0.00361592
-0.000328911
0.00264963
-0.00104963
0.00621103
-0.00196386
0.00835534
-0.00294082
0.00946985
-0.00391265
0.0098737
-0.00485455
0.00978183
-0.0057662
0.00930638
-0.00665773
0.0084797
-0.00753908
0.00728109
-0.00841061
0.0056602
-0.00925296
0.00355711
-0.0100149
0.000922556
-0.0105977
-0.00225474
-0.0108417
-0.00590621
-0.0105224
-0.00981288
-0.00938389
-0.0134976
-0.00725762
-0.0160927
-0.00431604
-0.0162864
-0.00140288
-0.0126791
-0.0050188
-0.00034432
0.00299395
-0.00104714
0.00691385
-0.00188078
0.00918898
-0.00270833
0.0102974
-0.00347253
0.0106379
-0.00416584
0.0104751
-0.00480736
0.00994791
-0.00542833
0.00910067
-0.00606264
0.0079154
-0.00673901
0.00633657
-0.00747189
0.00428998
-0.00824855
0.00169922
-0.00900972
-0.00149357
-0.00962359
-0.00529233
-0.0098579
-0.00957857
-0.00937466
-0.0139809
-0.0078106
-0.0176567
-0.00505725
-0.0190397
-0.00181317
-0.0159232
-0.00683196
-0.000402487
0.00339644
-0.00111715
0.00762851
-0.00185464
0.00992647
-0.00247509
0.0109179
-0.00294539
0.0111082
-0.00328667
0.0108164
-0.00354394
0.0102052
-0.0037721
0.00932883
-0.00402917
0.00817247
-0.0043717
0.0066791
-0.00484878
0.00476707
-0.00549186
0.00234229
-0.0062962
-0.000689222
-0.00718907
-0.00439947
-0.00798088
-0.00878676
-0.00831078
-0.013651
-0.00764882
-0.0183187
-0.00552512
-0.0211634
-0.00224823
-0.0192001
-0.00908019
-0.000549545
0.00394598
-0.00133776
0.00841673
-0.00196367
0.0105524
-0.00230269
0.0112569
-0.00237473
0.0111802
-0.00224841
0.0106901
-0.00200346
0.00996024
-0.00172044
0.00904581
-0.00147935
0.00793138
-0.00135994
0.00655969
-0.00144066
0.00484779
-0.00179377
0.0026954
-0.00247287
-1.01182e-05
-0.00348464
-0.0033877
-0.00473196
-0.00753944
-0.00591561
-0.0124673
-0.00642861
-0.0178057
-0.00543685
-0.0221552
-0.00261741
-0.0220196
-0.0116976
-0.000852381
0.00479836
-0.0017984
0.00936275
-0.00225638
0.0110103
-0.00217982
0.0111803
-0.00169923
0.0106996
-0.000958229
0.00994911
-8.01556e-05
0.00908216
0.000829101
0.00813655
0.00167276
0.00708772
0.00235593
0.00587652
0.00278076
0.00442296
0.002845
0.00263116
0.00244592
0.000388964
0.00149651
-0.0024383
-2.77677e-05
-0.00601517
-0.00197474
-0.0105204
-0.00380454
-0.0159759
-0.00442647
-0.0215332
-0.00273917
-0.0237069
-0.0144368
-0.0013754
0.00617376
-0.00250819
0.0104955
-0.00255957
0.0110617
-0.00176306
0.0103838
-0.000463084
0.00939967
0.00109753
0.00838849
0.00275513
0.00742456
0.00438944
0.00650224
0.00590035
0.00557681
0.00719158
0.0045853
0.00816016
0.00345438
0.00868982
0.00210151
0.00864694
0.000431839
0.00788379
-0.00167515
0.00625959
-0.00439097
0.0037282
-0.00798896
0.000593561
-0.0128412
-0.00204352
-0.0188961
-0.00231251
-0.0234379
-0.0167493
-0.00213888
0.00831264
-0.00295746
0.0113141
-0.00177713
0.0098814
0.000375883
0.00823078
0.00288304
0.00689252
0.00546223
0.00580929
0.00796713
0.00491966
0.010306
0.00416342
0.0124076
0.00347518
0.0141989
0.00279404
0.0155923
0.00206095
0.0164784
0.00121537
0.0167167
0.000193597
0.0161307
-0.00108919
0.0145007
-0.00276092
0.0115877
-0.00507603
0.00730165
-0.00855518
0.00233703
-0.0139315
-0.000933218
-0.0201676
-0.0176825
-0.00247422
0.0107869
2.00338e-07
0.00883969
0.00417198
0.00570961
0.00828479
0.00411798
0.01203
0.00314731
0.0153842
0.00245512
0.0183547
0.00194909
0.0209536
0.00156457
0.0231817
0.0012471
0.0250201
0.000955569
0.026424
0.000657098
0.0273139
0.000325464
0.0275704
-6.29606e-05
0.0270289
-0.000547673
0.0254447
-0.00117665
0.0224545
-0.00208588
0.0175524
-0.00365303
0.0103548
-0.00673398
0.00244586
-0.0122586
-0.0152366
0.0107869
0.0196266
0.0253362
0.0294541
0.0326015
0.0350566
0.0370057
0.0385702
0.0398173
0.0407729
0.04143
0.0417555
0.0416925
0.0411448
0.0399682
0.0378823
0.0342293
0.0274953
0.0152366
)
;

boundaryField
{
    movingWall
    {
        type            calculated;
        value           uniform 0;
    }
    fixedWalls
    {
        type            calculated;
        value           uniform 0;
    }
    frontAndBack
    {
        type            empty;
    }
}


// ************************************************************************* //
