/*--------------------------------*- C++ -*----------------------------------*\
  =========                 |
  \\      /  F ield         | OpenFOAM: The Open Source CFD Toolbox
   \\    /   O peration     | Website:  https://openfoam.org
    \\  /    A nd           | Version:  13
     \\/     M anipulation  |
\*---------------------------------------------------------------------------*/
FoamFile
{
    format      ascii;
    class       volVectorField;
    location    "19";
    object      U;
}
// * * * * * * * * * * * * * * * * * * * * * * * * * * * * * * * * * * * * * //

dimensions      [0 1 -1 0 0 0 0];

internalField   nonuniform List<vector> 
400
(
(0.000149597 -0.000152591 0)
(-0.000177367 5.39019e-05 0)
(-0.00148359 0.000273745 0)
(-0.00356443 0.000414417 0)
(-0.00610275 0.000487353 0)
(-0.0088198 0.000511622 0)
(-0.0114856 0.00049683 0)
(-0.0138894 0.000443307 0)
(-0.0158194 0.000346426 0)
(-0.0170606 0.000202593 0)
(-0.0174168 1.54091e-05 0)
(-0.0167507 -0.000199548 0)
(-0.0150349 -0.000412554 0)
(-0.0123973 -0.00058277 0)
(-0.00914202 -0.000666812 0)
(-0.00572886 -0.000631926 0)
(-0.00270005 -0.0004693 0)
(-0.000557019 -0.000202934 0)
(0.000407921 9.5439e-05 0)
(0.000268811 0.000262735 0)
(-6.5902e-05 0.000174864 0)
(-0.00192575 0.00181213 0)
(-0.00591748 0.00347678 0)
(-0.0115319 0.00461995 0)
(-0.0180868 0.00521227 0)
(-0.0249667 0.00532466 0)
(-0.0316209 0.00500919 0)
(-0.037528 0.00427964 0)
(-0.0421743 0.00313323 0)
(-0.0450662 0.00158841 0)
(-0.0457812 -0.000276793 0)
(-0.0440513 -0.0022981 0)
(-0.0398585 -0.00422059 0)
(-0.0335167 -0.00572643 0)
(-0.0257049 -0.00649776 0)
(-0.0174204 -0.00630737 0)
(-0.00982918 -0.00511507 0)
(-0.00401956 -0.00314325 0)
(-0.00068425 -0.000938338 0)
(0.000173376 0.000454581 0)
(-0.000341389 0.00162482 0)
(-0.00407009 0.00595092 0)
(-0.0107806 0.00978001 0)
(-0.0196067 0.0123595 0)
(-0.0295741 0.0136468 0)
(-0.0398511 0.0137617 0)
(-0.0496785 0.0127977 0)
(-0.0583261 0.0107892 0)
(-0.0650801 0.00775621 0)
(-0.0692684 0.0037805 0)
(-0.0703281 -0.000918857 0)
(-0.067906 -0.00593576 0)
(-0.0619731 -0.0106744 0)
(-0.0529257 -0.0144104 0)
(-0.0416366 -0.0164242 0)
(-0.0294157 -0.0161961 0)
(-0.0178426 -0.0136216 0)
(-0.00846421 -0.00918317 0)
(-0.00241562 -0.00403791 0)
(-6.1239e-06 -0.000165794 0)
(-0.000589009 0.00421552 0)
(-0.006122 0.0124655 0)
(-0.0154343 0.0190514 0)
(-0.0272405 0.0233283 0)
(-0.040272 0.0253517 0)
(-0.0535341 0.0253258 0)
(-0.0661362 0.0233948 0)
(-0.0772197 0.0196188 0)
(-0.0859418 0.0140504 0)
(-0.0915027 0.00685334 0)
(-0.0932152 -0.00158348 0)
(-0.0906105 -0.0105699 0)
(-0.0835661 -0.0191072 0)
(-0.0724354 -0.0259753 0)
(-0.0581449 -0.0299344 0)
(-0.0422065 -0.0300382 0)
(-0.0265808 -0.0260054 0)
(-0.0133519 -0.0185376 0)
(-0.0042746 -0.00944889 0)
(-0.00016081 -0.00169424 0)
(-0.000802475 0.00784289 0)
(-0.00797059 0.0211659 0)
(-0.0196719 0.0310239 0)
(-0.0342082 0.0371749 0)
(-0.0500312 0.039923 0)
(-0.0660212 0.0396236 0)
(-0.0812124 0.0364937 0)
(-0.0946791 0.0306206 0)
(-0.1055 0.022082 0)
(-0.112773 0.0111098 0)
(-0.115674 -0.00175269 0)
(-0.113555 -0.0155406 0)
(-0.10609 -0.0288374 0)
(-0.093447 -0.0398632 0)
(-0.0764582 -0.0467228 0)
(-0.0567421 -0.0478398 0)
(-0.0366548 -0.042533 0)
(-0.018977 -0.0315699 0)
(-0.00634815 -0.0174225 0)
(-0.000303451 -0.00417228 0)
(-0.000982058 0.0123799 0)
(-0.00957448 0.031817 0)
(-0.0233817 0.0454293 0)
(-0.0403447 0.0536253 0)
(-0.0586735 0.0571114 0)
(-0.0771635 0.0564751 0)
(-0.0948236 0.0520374 0)
(-0.110713 0.0439108 0)
(-0.123877 0.0321719 0)
(-0.13333 0.0170757 0)
(-0.138094 -0.000739936 0)
(-0.137283 -0.0200936 0)
(-0.130252 -0.0391796 0)
(-0.11682 -0.0556152 0)
(-0.097548 -0.0666936 0)
(-0.0740099 -0.0699202 0)
(-0.0489243 -0.0638443 0)
(-0.0259337 -0.0489961 0)
(-0.00891755 -0.0284597 0)
(-0.000474271 -0.00774076 0)
(-0.00112418 0.0176883 0)
(-0.0108916 0.044137 0)
(-0.0264503 0.0619402 0)
(-0.0454542 0.0723597 0)
(-0.0659231 0.0766454 0)
(-0.0866118 0.0757016 0)
(-0.106552 0.0699887 0)
(-0.124842 0.05964 0)
(-0.140538 0.0446919 0)
(-0.152609 0.0253503 0)
(-0.159929 0.00224988 0)
(-0.16134 -0.0233197 0)
(-0.155787 -0.049247 0)
(-0.142585 -0.0725522 0)
(-0.121794 -0.0895735 0)
(-0.0946983 -0.0965487 0)
(-0.0642083 -0.0907188 0)
(-0.0349061 -0.0718338 0)
(-0.012343 -0.0433929 0)
(-0.000721863 -0.0127168 0)
(-0.00122291 0.0236067 0)
(-0.0118715 0.0577832 0)
(-0.0287467 0.0801413 0)
(-0.0492951 0.0929521 0)
(-0.0714 0.0981345 0)
(-0.0938187 0.0969937 0)
(-0.115654 0.0901695 0)
(-0.136096 0.0778147 0)
(-0.154279 0.0598818 0)
(-0.169184 0.0364421 0)
(-0.17959 0.00800096 0)
(-0.18409 -0.0241977 0)
(-0.181191 -0.0578897 0)
(-0.16958 -0.0895921 0)
(-0.148577 -0.114626 0)
(-0.118809 -0.127622 0)
(-0.0830011 -0.123817 0)
(-0.0465276 -0.10129 0)
(-0.0170278 -0.0633938 0)
(-0.00110633 -0.0196201 0)
(-0.00127407 0.0299477 0)
(-0.0124727 0.0723471 0)
(-0.0301508 0.0995144 0)
(-0.0516197 0.114833 0)
(-0.0746718 0.121 0)
(-0.0981049 0.119807 0)
(-0.121138 0.112123 0)
(-0.143115 0.0981275 0)
(-0.163319 0.0776575 0)
(-0.180842 0.0505677 0)
(-0.194476 0.0170998 0)
(-0.202666 -0.0217353 0)
(-0.203549 -0.063748 0)
(-0.195157 -0.105172 0)
(-0.175865 -0.140416 0)
(-0.145213 -0.162294 0)
(-0.105114 -0.163297 0)
(-0.0612084 -0.138514 0)
(-0.0233981 -0.0899185 0)
(-0.00170771 -0.0291936 0)
(-0.00128199 0.0365098 0)
(-0.0126974 0.0873715 0)
(-0.0306139 0.119442 0)
(-0.0522575 0.137267 0)
(-0.0753615 0.144424 0)
(-0.0987971 0.143281 0)
(-0.121943 0.134996 0)
(-0.144354 0.119808 0)
(-0.165556 0.0974263 0)
(-0.184865 0.0674353 0)
(-0.201248 0.0296977 0)
(-0.213191 -0.0152024 0)
(-0.218651 -0.0654357 0)
(-0.215117 -0.117313 0)
(-0.199955 -0.164674 0)
(-0.171226 -0.198611 0)
(-0.129234 -0.208286 0)
(-0.0788621 -0.184159 0)
(-0.0318542 -0.124548 0)
(-0.0026371 -0.0424225 0)
(-0.00126927 0.043114 0)
(-0.0126419 0.102401 0)
(-0.0302442 0.139241 0)
(-0.051232 0.159362 0)
(-0.0732987 0.167333 0)
(-0.0954242 0.166196 0)
(-0.117192 0.157479 0)
(-0.138432 0.14153 0)
(-0.158991 0.117957 0)
(-0.178546 0.0860643 0)
(-0.196417 0.0452693 0)
(-0.211388 -0.00443042 0)
(-0.22153 -0.0618659 0)
(-0.224088 -0.123895 0)
(-0.215578 -0.184399 0)
(-0.192404 -0.233288 0)
(-0.152481 -0.256317 0)
(-0.0984995 -0.23771 0)
(-0.0426473 -0.168654 0)
(-0.00404744 -0.0605386 0)
(-0.00129116 0.0496749 0)
(-0.0125642 0.117076 0)
(-0.0294113 0.158228 0)
(-0.0488921 0.180106 0)
(-0.06868 0.188415 0)
(-0.0879249 0.186995 0)
(-0.106481 0.177822 0)
(-0.124512 0.161422 0)
(-0.142262 0.137363 0)
(-0.159869 0.104709 0)
(-0.17718 0.062439 0)
(-0.193528 0.00988483 0)
(-0.20746 -0.0526818 0)
(-0.216431 -0.123161 0)
(-0.21656 -0.196294 0)
(-0.202792 -0.261856 0)
(-0.170203 -0.302947 0)
(-0.117759 -0.296666 0)
(-0.0556208 -0.222772 0)
(-0.00613946 -0.0849709 0)
(-0.00145867 0.0563213 0)
(-0.0129742 0.131275 0)
(-0.028857 0.175818 0)
(-0.0460219 0.198424 0)
(-0.0621798 0.206181 0)
(-0.0767821 0.203854 0)
(-0.0900619 0.193941 0)
(-0.102587 0.177203 0)
(-0.115046 0.153236 0)
(-0.128097 0.120953 0)
(-0.142204 0.0789747 0)
(-0.157435 0.026004 0)
(-0.173145 -0.0386778 0)
(-0.187526 -0.114389 0)
(-0.197009 -0.197578 0)
(-0.195779 -0.27934 0)
(-0.176256 -0.341895 0)
(-0.132584 -0.355849 0)
(-0.069787 -0.285654 0)
(-0.00915148 -0.117164 0)
(-0.00198006 0.0635909 0)
(-0.0147576 0.145302 0)
(-0.0297916 0.191613 0)
(-0.0438616 0.213217 0)
(-0.0548996 0.219002 0)
(-0.0629261 0.214779 0)
(-0.0687348 0.203578 0)
(-0.0733836 0.186402 0)
(-0.0780272 0.162921 0)
(-0.0838284 0.13199 0)
(-0.0918658 0.0920082 0)
(-0.102986 0.0412058 0)
(-0.11754 -0.022019 0)
(-0.134898 -0.0984979 0)
(-0.152634 -0.186994 0)
(-0.165338 -0.281471 0)
(-0.163814 -0.365951 0)
(-0.137275 -0.407306 0)
(-0.082775 -0.353108 0)
(-0.0132793 -0.158108 0)
(-0.00321947 0.072721 0)
(-0.0193229 0.160081 0)
(-0.0338778 0.205394 0)
(-0.0438461 0.223282 0)
(-0.0478833 0.225067 0)
(-0.0470779 0.217636 0)
(-0.0430577 0.204423 0)
(-0.0374673 0.186577 0)
(-0.0319162 0.163821 0)
(-0.0279988 0.135011 0)
(-0.0272978 0.098469 0)
(-0.0313364 0.0521857 0)
(-0.0414302 -0.00601681 0)
(-0.0583278 -0.0782068 0)
(-0.0814082 -0.165551 0)
(-0.107055 -0.266019 0)
(-0.126358 -0.368529 0)
(-0.1249 -0.441163 0)
(-0.0902509 -0.417186 0)
(-0.0183551 -0.207517 0)
(-0.00568162 0.0861338 0)
(-0.0285811 0.177235 0)
(-0.0426671 0.216755 0)
(-0.0463696 0.226842 0)
(-0.0403482 0.222006 0)
(-0.0276178 0.209912 0)
(-0.0109689 0.194015 0)
(0.0073077 0.175354 0)
(0.0252168 0.153583 0)
(0.0408737 0.127556 0)
(0.052376 0.0956295 0)
(0.0577392 0.0557944 0)
(0.0549052 0.00570587 0)
(0.0418927 -0.057352 0)
(0.0173129 -0.136362 0)
(-0.0181031 -0.233479 0)
(-0.0581457 -0.345108 0)
(-0.0876467 -0.447123 0)
(-0.0854282 -0.466445 0)
(-0.0231726 -0.263338 0)
(-0.0099126 0.10898 0)
(-0.0439999 0.198767 0)
(-0.0547218 0.223614 0)
(-0.0461039 0.220071 0)
(-0.0240471 0.205784 0)
(0.00537249 0.188004 0)
(0.0381302 0.169357 0)
(0.0714887 0.150301 0)
(0.103329 0.1302 0)
(0.13175 0.107851 0)
(0.154808 0.0817188 0)
(0.170353 0.049992 0)
(0.175923 0.0105393 0)
(0.168713 -0.0393157 0)
(0.145709 -0.103255 0)
(0.104526 -0.186472 0)
(0.0465589 -0.293719 0)
(-0.0166309 -0.415489 0)
(-0.0588927 -0.486457 0)
(-0.0249007 -0.32181 0)
(-0.0176822 0.152236 0)
(-0.0615691 0.223795 0)
(-0.0534098 0.216972 0)
(-0.0167642 0.193408 0)
(0.0315543 0.168965 0)
(0.0832734 0.146782 0)
(0.134583 0.127238 0)
(0.183329 0.109684 0)
(0.228004 0.0929901 0)
(0.267238 0.0758854 0)
(0.299483 0.0570369 0)
(0.322821 0.0349973 0)
(0.334798 0.00814986 0)
(0.332327 -0.0255671 0)
(0.311511 -0.0693184 0)
(0.267644 -0.12899 0)
(0.196425 -0.215402 0)
(0.100264 -0.337546 0)
(0.00270656 -0.456079 0)
(-0.0163897 -0.368242 0)
(-0.0240166 0.20874 0)
(-0.0375574 0.230854 0)
(0.0374629 0.176608 0)
(0.124694 0.136403 0)
(0.204562 0.108196 0)
(0.275658 0.0871431 0)
(0.33879 0.0710584 0)
(0.39441 0.0583147 0)
(0.442707 0.047476 0)
(0.483466 0.0373763 0)
(0.516142 0.0269987 0)
(0.539486 0.0154193 0)
(0.551504 0.00170096 0)
(0.549427 -0.0152681 0)
(0.529315 -0.0373602 0)
(0.485548 -0.0684905 0)
(0.409651 -0.118765 0)
(0.289799 -0.209268 0)
(0.132505 -0.338299 0)
(0.0382443 -0.340133 0)
(0.242005 0.109277 0)
(0.313891 0.0973246 0)
(0.44495 0.0570565 0)
(0.550157 0.0350849 0)
(0.62419 0.0236307 0)
(0.679121 0.016555 0)
(0.722327 0.0118252 0)
(0.757058 0.00857993 0)
(0.784963 0.00621553 0)
(0.806888 0.00428618 0)
(0.823022 0.00246631 0)
(0.83296 0.000530142 0)
(0.83578 -0.00170771 0)
(0.829988 -0.00439769 0)
(0.813177 -0.00786743 0)
(0.78134 -0.0128093 0)
(0.726052 -0.0212806 0)
(0.63016 -0.0382271 0)
(0.459346 -0.0858542 0)
(0.304864 -0.12576 0)
)
;

boundaryField
{
    movingWall
    {
        type            fixedValue;
        value           uniform (1 0 0);
    }
    fixedWalls
    {
        type            fixedValue;
        value           uniform (0 0 0);
    }
    frontAndBack
    {
        type            empty;
    }
}


// ************************************************************************* //
