/*--------------------------------*- C++ -*----------------------------------*\
  =========                 |
  \\      /  F ield         | OpenFOAM: The Open Source CFD Toolbox
   \\    /   O peration     | Website:  https://openfoam.org
    \\  /    A nd           | Version:  13
     \\/     M anipulation  |
\*---------------------------------------------------------------------------*/
FoamFile
{
    format      ascii;
    class       volScalarField;
    location    "39";
    object      p;
}
// * * * * * * * * * * * * * * * * * * * * * * * * * * * * * * * * * * * * * //

dimensions      [0 2 -2 0 0 0 0];

internalField   nonuniform List<scalar> 
400
(
6.86191e-08
-0.00057246
-0.00121607
-0.00171897
-0.00195928
-0.00188472
-0.00147051
-0.000705589
0.00040122
0.00180589
0.00341463
0.00507496
0.00659099
0.00775104
0.00837974
0.00839558
0.0078553
0.00696887
0.00604798
0.00549431
0.000569905
-2.03491e-05
-0.000569713
-0.000957111
-0.00113212
-0.00106206
-0.000726022
-0.000109285
0.00078871
0.00193938
0.00326972
0.00466006
0.00594065
0.00692976
0.00747419
0.00750174
0.00705916
0.00631879
0.00554322
0.00497261
0.00124564
0.00049291
-8.67501e-05
-0.000441396
-0.000606221
-0.00057638
-0.000337349
0.00013254
0.000849643
0.00180683
0.00295478
0.00419173
0.00536438
0.00629377
0.0068192
0.00685285
0.00642071
0.00566814
0.00480889
0.00403715
0.00174056
0.00076361
7.35996e-05
-0.000321969
-0.000537158
-0.000592802
-0.000478309
-0.000160224
0.000399974
0.00122203
0.00228163
0.00349281
0.00470166
0.00570968
0.00631935
0.00639811
0.00593347
0.00505053
0.00394836
0.0028444
0.00179547
0.000595676
-0.000227773
-0.000704871
-0.00101817
-0.00120727
-0.00125942
-0.00112307
-0.000730553
-2.78756e-05
0.000991709
0.00226356
0.00363003
0.00486121
0.00569864
0.00593229
0.00548037
0.00443546
0.0029999
0.00146206
0.00119469
-0.000203033
-0.00116333
-0.00175275
-0.00221144
-0.00259069
-0.00286929
-0.00297124
-0.00279197
-0.00223296
-0.0012441
0.000150495
0.00179283
0.00341982
0.00469021
0.00527472
0.00497189
0.00380566
0.00197899
-0.000104069
-0.000241663
-0.00180009
-0.00289226
-0.00362225
-0.00427773
-0.00491665
-0.00550508
-0.00593756
-0.00606459
-0.00572847
-0.00480694
-0.00328519
-0.00127035
0.000946687
0.00292628
0.00416986
0.00427926
0.00313554
0.0009026
-0.00185627
-0.002652
-0.00432636
-0.00554124
-0.00643929
-0.00734712
-0.00832773
-0.00933388
-0.0102287
-0.0108113
-0.0108505
-0.0101336
-0.00853901
-0.00610707
-0.00311225
-8.64232e-05
0.00225504
0.00321266
0.00239528
-0.000177377
-0.00375297
-0.0061214
-0.00786173
-0.00918472
-0.0102718
-0.011483
-0.0128893
-0.0144344
-0.0159529
-0.0171896
-0.0178277
-0.0175354
-0.0160428
-0.0132531
-0.0093575
-0.00493603
-0.000941411
0.00150808
0.00155457
-0.00113717
-0.00564682
-0.0106715
-0.0124237
-0.0138275
-0.015102
-0.0166422
-0.0185358
-0.0207271
-0.0230305
-0.0251404
-0.0266492
-0.0270841
-0.0259776
-0.0230342
-0.0182541
-0.0121678
-0.00592215
-0.0011423
0.000603007
-0.00173141
-0.00719517
-0.0162605
-0.0179653
-0.0193957
-0.0208062
-0.0226415
-0.0250234
-0.0279113
-0.0311115
-0.0342775
-0.0369139
-0.0383953
-0.0380067
-0.0352841
-0.0298335
-0.0220051
-0.0130064
-0.00495984
-0.000375594
-0.00151606
-0.00772071
-0.0228029
-0.02439
-0.0257427
-0.0271484
-0.0291435
-0.0319106
-0.0354424
-0.0395494
-0.0438549
-0.0477846
-0.05058
-0.0513771
-0.0491634
-0.043394
-0.0339889
-0.0219777
-0.00980596
-0.0010248
0.000280011
-0.00600003
-0.0302225
-0.0315862
-0.0326696
-0.033792
-0.0356681
-0.0385799
-0.0425689
-0.047455
-0.0528343
-0.0580627
-0.062251
-0.0643106
-0.0630223
-0.057332
-0.0466928
-0.031705
-0.0148011
-0.000417108
0.00496557
2.27711e-05
-0.03856
-0.0394894
-0.0399612
-0.0403269
-0.0416349
-0.0443095
-0.0484455
-0.0538593
-0.0601059
-0.0664654
-0.0719294
-0.0752215
-0.0748704
-0.0694214
-0.057807
-0.0400021
-0.0180233
0.00327951
0.0146986
0.0135557
-0.0481748
-0.048157
-0.0474035
-0.0462841
-0.046412
-0.0483712
-0.0522815
-0.0579131
-0.0647394
-0.0719354
-0.0783606
-0.0825613
-0.0828322
-0.0773738
-0.0646453
-0.043937
-0.0165435
0.0130188
0.0329311
0.0392807
-0.060235
-0.0579577
-0.0548672
-0.0512135
-0.0494272
-0.0501784
-0.0535203
-0.0590937
-0.0662201
-0.0739187
-0.0808795
-0.0854534
-0.085707
-0.0795199
-0.064942
-0.0406113
-0.00697888
0.0328168
0.0647937
0.0836768
-0.0774814
-0.0694732
-0.0620875
-0.0545495
-0.050139
-0.0493251
-0.0519045
-0.057261
-0.0644862
-0.072385
-0.07944
-0.0837784
-0.0832185
-0.075283
-0.0576214
-0.0282113
0.0133524
0.066661
0.115752
0.154807
-0.108926
-0.0850401
-0.0697734
-0.0563916
-0.0485411
-0.0458812
-0.0476243
-0.052715
-0.0599172
-0.0677771
-0.0745524
-0.0781401
-0.0761044
-0.0655426
-0.0436433
-0.00744511
0.0447431
0.114933
0.188078
0.263281
-0.168693
-0.100746
-0.0730932
-0.0522882
-0.0413102
-0.0376998
-0.039442
-0.0448655
-0.0524158
-0.060447
-0.067074
-0.0700479
-0.0666875
-0.0537884
-0.0278899
0.0154099
0.0800716
0.17276
0.285855
0.445985
-0.402754
-0.139031
-0.0734592
-0.0447302
-0.0305718
-0.0266176
-0.0290856
-0.0353735
-0.0436541
-0.0522074
-0.059124
-0.0621456
-0.0586175
-0.0452141
-0.0174509
0.0310786
0.108496
0.236657
0.427487
0.79368
)
;

boundaryField
{
    movingWall
    {
        type            zeroGradient;
    }
    fixedWalls
    {
        type            zeroGradient;
    }
    frontAndBack
    {
        type            empty;
    }
}


// ************************************************************************* //
