/*--------------------------------*- C++ -*----------------------------------*\
  =========                 |
  \\      /  F ield         | OpenFOAM: The Open Source CFD Toolbox
   \\    /   O peration     | Website:  https://openfoam.org
    \\  /    A nd           | Version:  13
     \\/     M anipulation  |
\*---------------------------------------------------------------------------*/
FoamFile
{
    format      ascii;
    class       surfaceScalarField;
    location    "39";
    object      phi_0;
}
// * * * * * * * * * * * * * * * * * * * * * * * * * * * * * * * * * * * * * //

dimensions      [0 3 -1 0 0 0 0];

internalField   nonuniform List<scalar> 
760
(
4.56469e-06
-4.56439e-06
-3.88727e-05
4.34377e-05
-0.000131481
9.26082e-05
-0.000257335
0.000125854
-0.000400516
0.00014318
-0.00054764
0.000147126
-0.000686842
0.000139201
-0.000806388
0.000119546
-0.000894123
8.77364e-05
-0.000938169
4.40459e-05
-0.000928836
-9.33443e-06
-0.000861391
-6.74445e-05
-0.000738876
-0.000122515
-0.000573993
-0.000164884
-0.000388919
-0.000185073
-0.000212257
-0.000176661
-7.30989e-05
-0.000139157
6.83374e-06
-7.99335e-05
2.2615e-05
-1.57818e-05
2.26157e-05
-4.7272e-05
4.27073e-05
-0.000209571
0.000205736
-0.000473491
0.000356527
-0.000806426
0.000458791
-0.00117409
0.000510841
-0.00154492
0.000517958
-0.00188942
0.000483706
-0.00217871
0.000408829
-0.00238439
0.000293417
-0.00248063
0.000140292
-0.00244821
-4.1762e-05
-0.00227959
-0.000236066
-0.00198398
-0.000418117
-0.00159032
-0.000558546
-0.00114646
-0.000628931
-0.000713164
-0.000609961
-0.000352392
-0.000499928
-0.000111499
-0.000320824
-5.91863e-06
-0.000121362
1.66985e-05
-0.000111868
0.000154575
-0.000405534
0.000499404
-0.000834857
0.000785848
-0.00135073
0.000974663
-0.00190619
0.0010663
-0.00245771
0.00106948
-0.00296399
0.000989988
-0.00338472
0.000829562
-0.00368115
0.000589845
-0.00381896
0.000278107
-0.00377322
-8.75082e-05
-0.00353435
-0.00047493
-0.00311406
-0.000838405
-0.00254922
-0.00112339
-0.00190178
-0.00127637
-0.00125252
-0.00125922
-0.000687181
-0.00106527
-0.000276278
-0.000731727
-5.33793e-05
-0.000344257
-3.66799e-05
-0.000173348
0.000327923
-0.000593849
0.000919903
-0.00117933
0.00137132
-0.00186176
0.0016571
-0.00258307
0.00178761
-0.00329155
0.00177796
-0.0039386
0.00163704
-0.00447698
0.00136794
-0.00486128
0.000974138
-0.00505085
0.000467681
-0.00501484
-0.000123519
-0.00473847
-0.000751299
-0.0042299
-0.00134697
-0.00352617
-0.00182712
-0.00269592
-0.00210662
-0.0018356
-0.00211954
-0.00105584
-0.00184503
-0.000457485
-0.00133008
-0.000103533
-0.000698206
-0.000140213
-0.000228085
0.000556008
-0.000763248
0.00145507
-0.00149017
0.00209824
-0.00232248
0.00248941
-0.00319246
0.00265759
-0.00404301
0.0026285
-0.00482174
0.00241578
-0.00547783
0.00202403
-0.00596158
0.00145789
-0.00622658
0.000732689
-0.00623411
-0.000115992
-0.00595937
-0.00102604
-0.00539982
-0.00190652
-0.00458431
-0.00264262
-0.00358105
-0.00310988
-0.00249942
-0.00320115
-0.00147934
-0.00286512
-0.000663543
-0.00214587
-0.000158198
-0.00120355
-0.000298411
-0.000274249
0.000830256
-0.000907142
0.00208796
-0.00175564
0.00294674
-0.0027178
0.00345157
-0.00371851
0.0036583
-0.00469789
0.00360788
-0.00560275
0.00332065
-0.00638154
0.00280283
-0.00698225
0.0020586
-0.00735303
0.00110347
-0.00744531
-2.37085e-05
-0.00721956
-0.00125178
-0.00665509
-0.00247099
-0.00576309
-0.00353463
-0.00460181
-0.00427116
-0.00328788
-0.00451508
-0.00199324
-0.00415976
-0.000916088
-0.00322303
-0.000224905
-0.00189474
-0.000523316
-0.000309961
0.00114022
-0.00101934
0.00279734
-0.00196414
0.00389153
-0.00303072
0.00451814
-0.00413924
0.00476682
-0.00522963
0.00469826
-0.00625075
0.00434177
-0.00715315
0.00370523
-0.00788491
0.00279036
-0.00839006
0.00160863
-0.00860968
0.000195916
-0.00848681
-0.00137466
-0.0079761
-0.0029817
-0.00706088
-0.00444986
-0.00577625
-0.00555579
-0.0042337
-0.00605764
-0.00263324
-0.00576022
-0.0012406
-0.00461567
-0.000313093
-0.00282225
-0.000836408
-0.00033333
0.00147355
-0.00109382
0.00355782
-0.00210388
0.0049016
-0.00324224
0.0056565
-0.00442701
0.0059516
-0.00560038
0.00587164
-0.006716
0.00545739
-0.00772966
0.00471889
-0.00859286
0.00365356
-0.00924879
0.00226456
-0.00963079
0.000577912
-0.00966475
-0.0013407
-0.0092777
-0.00336875
-0.0084159
-0.00531166
-0.007075
-0.00689669
-0.00534028
-0.00779236
-0.00342338
-0.00767713
-0.00166141
-0.00637764
-0.000433106
-0.00405055
-0.00126952
-0.000343113
0.00181666
-0.00112613
0.00434084
-0.00216501
0.00594047
-0.00333439
0.00682588
-0.0045526
0.00716982
-0.00576626
0.00708529
-0.00693643
0.00662756
-0.00802759
0.00581006
-0.00899919
0.00462516
-0.00979904
0.00306441
-0.0103588
0.00113767
-0.0105927
-0.00110683
-0.0104022
-0.00355922
-0.0096918
-0.00602207
-0.00840152
-0.00818697
-0.00656172
-0.00963216
-0.00436222
-0.00987663
-0.00219656
-0.0085433
-0.000595809
-0.0056513
-0.00186532
-0.000339812
0.00215647
-0.00111614
0.00511717
-0.00214376
0.00696809
-0.00329577
0.00797789
-0.00449251
0.00836656
-0.00568693
0.00827971
-0.00685004
0.00779066
-0.00795863
0.00691865
-0.00898527
0.00565179
-0.00988964
0.00396879
-0.010611
0.00185908
-0.0110623
-0.000655528
-0.0111291
-0.00349242
-0.0106769
-0.00647427
-0.00958018
-0.00928374
-0.00778379
-0.0114285
-0.00540563
-0.0122548
-0.00284999
-0.0110989
-0.000811974
-0.00768932
-0.0026773
-0.000327161
0.00248363
-0.00107147
0.00586148
-0.00204783
0.00794445
-0.00312874
0.0090588
-0.00423839
0.0094762
-0.00533827
0.00937958
-0.0064119
0.00886429
-0.00745183
0.00795859
-0.0084488
0.00664877
-0.00938197
0.00490196
-0.0102092
0.00268635
-0.0108557
-9.057e-06
-0.0112082
-0.00313998
-0.0111065
-0.00657597
-0.0103624
-0.0100278
-0.00881374
-0.0129772
-0.00644833
-0.0146202
-0.00359915
-0.0139481
-0.0010906
-0.0101979
-0.0037679
-0.000314047
0.00279768
-0.00101172
0.00655915
-0.00190203
0.00883476
-0.00285652
0.0100133
-0.00380611
0.0104258
-0.00472443
0.0102979
-0.00561073
0.0097506
-0.00647636
0.00882423
-0.0073341
0.00750651
-0.00818847
0.00575633
-0.00902504
0.00352292
-0.00979855
0.000764451
-0.0104129
-0.0025256
-0.0107098
-0.00627907
-0.0104587
-0.0102789
-0.00938952
-0.0140464
-0.00731205
-0.0166977
-0.00437858
-0.0168816
-0.00143492
-0.0131415
-0.00520282
-0.000317236
0.00311491
-0.000973139
0.00721504
-0.00175334
0.00961496
-0.00252768
0.0107876
-0.0032403
0.0111384
-0.0038837
0.0109413
-0.00447747
0.0103444
-0.00505445
0.00940121
-0.00565131
0.00810337
-0.0063005
0.00640552
-0.00702097
0.00424339
-0.00780518
0.00154866
-0.00859845
-0.00173233
-0.00927237
-0.00560515
-0.00959345
-0.00995786
-0.00921414
-0.0144257
-0.00775027
-0.0181616
-0.0050639
-0.019568
-0.00183436
-0.0163711
-0.00703719
-0.000365834
0.00348075
-0.00101398
0.00786319
-0.00167302
0.010274
-0.00221406
0.0113286
-0.00260861
0.011533
-0.00288
0.0112127
-0.00307495
0.0105393
-0.00325023
0.00957649
-0.00346598
0.00831912
-0.00378097
0.00672051
-0.00424669
0.00470912
-0.00489741
0.00219938
-0.00573191
-0.00089783
-0.00668163
-0.00465542
-0.00756015
-0.00907935
-0.00800462
-0.0139812
-0.00747187
-0.0186943
-0.00546276
-0.0215771
-0.00225039
-0.0195834
-0.00928757
-0.000508056
0.0039888
-0.00121813
0.00857326
-0.00174926
0.0108051
-0.00199118
0.0115706
-0.00197172
0.0115135
-0.00176427
0.0110052
-0.00145164
0.0102267
-0.00111645
0.0092413
-0.000839916
0.00804259
-0.000702144
0.00658274
-0.000781189
0.00478817
-0.00114878
0.00256698
-0.00185884
-0.000187773
-0.00292052
-0.00359374
-0.00424142
-0.00775845
-0.00552705
-0.0126956
-0.00616827
-0.0180531
-0.00531132
-0.022434
-0.00259376
-0.022301
-0.0118813
-0.000813422
0.00480222
-0.00168174
0.00944158
-0.00204174
0.0111651
-0.00186267
0.0113915
-0.00128569
0.0109365
-0.000461347
0.0101809
0.000482642
0.0092827
0.001438
0.00828594
0.00230731
0.00717328
0.00299666
0.00589339
0.00341058
0.00437425
0.00345
0.00252755
0.00301508
0.000247162
0.00201992
-0.00259858
0.000437351
-0.00617588
-0.00158695
-0.0106713
-0.00351969
-0.0161203
-0.0042654
-0.0216883
-0.0026909
-0.0238755
-0.0145722
-0.00134934
0.00615156
-0.00242017
0.0105124
-0.00238755
0.0111325
-0.00149845
0.0105024
-0.000108863
0.00954692
0.0015301
0.00854193
0.00324923
0.00756357
0.00492509
0.00661009
0.00645633
0.00564204
0.00774768
0.00460204
0.00869888
0.00342305
0.00919742
0.00202901
0.00911406
0.000330529
0.00830509
-0.00178961
0.00663139
-0.00450218
0.00404397
-0.00808387
0.000838838
-0.0129152
-0.00188737
-0.0189621
-0.00225703
-0.0235058
-0.0168293
-0.00213537
0.00828693
-0.00292198
0.011299
-0.00168754
0.00989806
0.000533751
0.00828111
0.00311366
0.00696701
0.00576163
0.00589396
0.00832454
0.00500066
0.0107057
0.00422895
0.0128306
0.00351713
0.014626
0.00280665
0.0160061
0.00204296
0.016864
0.00117111
0.0170627
0.0001318
0.0164306
-0.00115747
0.0147521
-0.00282376
0.011793
-0.00512476
0.00746225
-0.00858444
0.00244693
-0.0139468
-0.000884093
-0.0201748
-0.0177134
-0.00248758
0.0107745
-1.23405e-05
0.00882378
0.00417738
0.00570834
0.0083267
0.00413179
0.0121206
0.00317316
0.0155278
0.00248668
0.0185493
0.00197917
0.0211905
0.00158781
0.0234477
0.00125989
0.0252982
0.000956179
0.0266948
0.000646335
0.0275601
0.000305784
0.0277814
-8.94071e-05
0.0271989
-0.000574973
0.0255755
-0.00120042
0.0225498
-0.00209907
0.0176199
-0.0036545
0.0104018
-0.00672871
0.00247528
-0.0122483
-0.0152381
0.0107745
0.0195983
0.0253066
0.0294384
0.0326116
0.0350983
0.0370774
0.0386652
0.0399251
0.0408813
0.0415276
0.0418334
0.041744
0.0411691
0.0399686
0.0378696
0.0342151
0.0274864
0.0152381
)
;

boundaryField
{
    movingWall
    {
        type            calculated;
        value           uniform 0;
    }
    fixedWalls
    {
        type            calculated;
        value           uniform 0;
    }
    frontAndBack
    {
        type            empty;
    }
}


// ************************************************************************* //
