/*--------------------------------*- C++ -*----------------------------------*\
  =========                 |
  \\      /  F ield         | OpenFOAM: The Open Source CFD Toolbox
   \\    /   O peration     | Website:  https://openfoam.org
    \\  /    A nd           | Version:  13
     \\/     M anipulation  |
\*---------------------------------------------------------------------------*/
FoamFile
{
    format      ascii;
    class       volVectorField;
    location    "39";
    object      U;
}
// * * * * * * * * * * * * * * * * * * * * * * * * * * * * * * * * * * * * * //

dimensions      [0 1 -1 0 0 0 0];

internalField   nonuniform List<vector> 
400
(
(0.000182151 -0.000186027 0)
(-0.000138601 3.05356e-05 0)
(-0.00153296 0.000268494 0)
(-0.00378236 0.000419408 0)
(-0.00653929 0.000499155 0)
(-0.00950267 0.000529504 0)
(-0.0124227 0.000520224 0)
(-0.0150662 0.000470265 0)
(-0.0171927 0.000372872 0)
(-0.0185559 0.000222661 0)
(-0.0189305 2.28803e-05 0)
(-0.0181614 -0.000209071 0)
(-0.0162236 -0.000439265 0)
(-0.0132723 -0.00062118 0)
(-0.00966388 -0.000706226 0)
(-0.00592433 -0.00065948 0)
(-0.00265951 -0.000474745 0)
(-0.000410806 -0.000182517 0)
(0.00053748 0.000136273 0)
(0.000308879 0.000301918 0)
(-4.76056e-05 0.000137526 0)
(-0.00207594 0.00193 0)
(-0.00642247 0.00375425 0)
(-0.0125617 0.0050156 0)
(-0.0197365 0.00567947 0)
(-0.0272768 0.0058222 0)
(-0.0345782 0.00549439 0)
(-0.0410594 0.00470251 0)
(-0.0461416 0.00343685 0)
(-0.049267 0.00171678 0)
(-0.0499637 -0.000365095 0)
(-0.0479418 -0.00261463 0)
(-0.0432021 -0.00473519 0)
(-0.0361229 -0.00636419 0)
(-0.027488 -0.00714925 0)
(-0.0184223 -0.00685332 0)
(-0.0102142 -0.00546103 0)
(-0.00403246 -0.00325384 0)
(-0.000578605 -0.000862753 0)
(0.000220685 0.000586651 0)
(-0.000353034 0.00171492 0)
(-0.00447726 0.00645462 0)
(-0.0118466 0.0106545 0)
(-0.0215574 0.0134944 0)
(-0.0325145 0.0149255 0)
(-0.043807 0.0150753 0)
(-0.0545975 0.0140329 0)
(-0.0640707 0.011821 0)
(-0.0714255 0.0084528 0)
(-0.0759111 0.00402299 0)
(-0.0769088 -0.00120837 0)
(-0.0740471 -0.00676565 0)
(-0.0673278 -0.0119638 0)
(-0.0572297 -0.0159872 0)
(-0.0447556 -0.0180472 0)
(-0.031376 -0.0176039 0)
(-0.0188304 -0.0146014 0)
(-0.00878415 -0.009641 0)
(-0.00241839 -0.0040551 0)
(3.43894e-05 2.08796e-05 0)
(-0.000629806 0.00458641 0)
(-0.00679602 0.0136483 0)
(-0.0170652 0.0208822 0)
(-0.0300875 0.0255818 0)
(-0.0444274 0.027812 0)
(-0.0589933 0.0277912 0)
(-0.072802 0.025659 0)
(-0.0848972 0.0214618 0)
(-0.0943411 0.0152515 0)
(-0.100252 0.00722383 0)
(-0.101889 -0.00215744 0)
(-0.0987674 -0.0120875 0)
(-0.0907947 -0.0214269 0)
(-0.078406 -0.0288131 0)
(-0.0626588 -0.0328956 0)
(-0.0452379 -0.0326872 0)
(-0.028292 -0.0279706 0)
(-0.0140675 -0.0196261 0)
(-0.00442846 -0.00974211 0)
(-0.00012587 -0.00151938 0)
(-0.000868264 0.00863595 0)
(-0.00887066 0.0232842 0)
(-0.0217731 0.034108 0)
(-0.0377872 0.04084 0)
(-0.0551585 0.0438318 0)
(-0.0726597 0.0434692 0)
(-0.0892281 0.0399686 0)
(-0.103839 0.0334064 0)
(-0.11548 0.0238699 0)
(-0.123172 0.0116446 0)
(-0.126039 -0.00261911 0)
(-0.123416 -0.0178018 0)
(-0.114993 -0.0323005 0)
(-0.100997 -0.044144 0)
(-0.0823743 -0.0512772 0)
(-0.0609097 -0.0520445 0)
(-0.0391671 -0.0458199 0)
(-0.020143 -0.0335914 0)
(-0.00667514 -0.0182043 0)
(-0.000272137 -0.00409181 0)
(-0.00106482 0.0137036 0)
(-0.0106208 0.0350618 0)
(-0.0257799 0.0499812 0)
(-0.0443749 0.0589055 0)
(-0.0643842 0.0626464 0)
(-0.0844931 0.0618486 0)
(-0.103617 0.0568425 0)
(-0.120726 0.0477372 0)
(-0.134782 0.0346312 0)
(-0.144738 0.0178523 0)
(-0.149567 -0.00182976 0)
(-0.148357 -0.0230496 0)
(-0.140458 -0.0437823 0)
(-0.125716 -0.0614105 0)
(-0.10476 -0.0730119 0)
(-0.0793062 -0.0759511 0)
(-0.0522809 -0.0687868 0)
(-0.0275946 -0.0522771 0)
(-0.00943992 -0.0299686 0)
(-0.000447256 -0.00784654 0)
(-0.00121199 0.0195978 0)
(-0.0119725 0.0485997 0)
(-0.0289092 0.0680562 0)
(-0.0495612 0.0793382 0)
(-0.0717103 0.0838714 0)
(-0.0940048 0.0826521 0)
(-0.115393 0.076167 0)
(-0.134896 0.0645578 0)
(-0.15151 0.0478954 0)
(-0.164154 0.0264735 0)
(-0.171666 0.00107276 0)
(-0.172855 -0.0268195 0)
(-0.166643 -0.0548551 0)
(-0.152325 -0.0797895 0)
(-0.12998 -0.0976913 0)
(-0.100968 -0.104576 0)
(-0.0683773 -0.0976029 0)
(-0.0370847 -0.0766995 0)
(-0.0130841 -0.0458859 0)
(-0.000702639 -0.0131129 0)
(-0.00130116 0.026089 0)
(-0.0128545 0.0634291 0)
(-0.0309893 0.0877705 0)
(-0.0530437 0.101564 0)
(-0.0766765 0.106977 0)
(-0.100547 0.105445 0)
(-0.123686 0.0976577 0)
(-0.145227 0.0837923 0)
(-0.164263 0.0638502 0)
(-0.179752 0.0380008 0)
(-0.190455 0.0069001 0)
(-0.194937 -0.0280126 0)
(-0.191673 -0.0642382 0)
(-0.179298 -0.0980212 0)
(-0.157084 -0.124377 0)
(-0.125649 -0.137628 0)
(-0.087803 -0.132799 0)
(-0.0491896 -0.108011 0)
(-0.0180029 -0.0671278 0)
(-0.00110146 -0.0204243 0)
(-0.00132763 0.0329126 0)
(-0.0132203 0.0790031 0)
(-0.0318899 0.108444 0)
(-0.0545578 0.124851 0)
(-0.0788255 0.131228 0)
(-0.103404 0.129536 0)
(-0.127452 0.120722 0)
(-0.150275 0.105012 0)
(-0.171144 0.0823092 0)
(-0.189153 0.0525763 0)
(-0.203105 0.0162051 0)
(-0.211446 -0.0256116 0)
(-0.212291 -0.0704716 0)
(-0.203604 -0.114361 0)
(-0.18366 -0.151381 0)
(-0.151886 -0.173982 0)
(-0.11014 -0.174291 0)
(-0.06421 -0.147221 0)
(-0.0245959 -0.0951081 0)
(-0.00172682 -0.030532 0)
(-0.001298 0.0397927 0)
(-0.0130863 0.0947289 0)
(-0.0315892 0.129302 0)
(-0.0539722 0.148302 0)
(-0.0778304 0.155649 0)
(-0.10196 0.15391 0)
(-0.125691 0.144356 0)
(-0.148559 0.1273 0)
(-0.170097 0.102541 0)
(-0.189662 0.0697848 0)
(-0.206263 0.0290456 0)
(-0.218432 -0.0189291 0)
(-0.224134 -0.0721337 0)
(-0.220813 -0.126692 0)
(-0.205705 -0.176188 0)
(-0.176673 -0.21135 0)
(-0.133793 -0.220859 0)
(-0.0818936 -0.194721 0)
(-0.0332114 -0.131293 0)
(-0.00269254 -0.044412 0)
(-0.00124005 0.0464893 0)
(-0.0125838 0.110038 0)
(-0.0302632 0.149522 0)
(-0.0514126 0.170883 0)
(-0.073657 0.179026 0)
(-0.0959178 0.177215 0)
(-0.11774 0.167119 0)
(-0.138947 0.149198 0)
(-0.159418 0.123178 0)
(-0.178892 0.0885103 0)
(-0.196771 0.0447705 0)
(-0.211919 -0.00789227 0)
(-0.222472 -0.06819 0)
(-0.225674 -0.13286 0)
(-0.21793 -0.195637 0)
(-0.195408 -0.246149 0)
(-0.155656 -0.269638 0)
(-0.101059 -0.24962 0)
(-0.0440192 -0.176837 0)
(-0.00415314 -0.0632548 0)
(-0.00121621 0.0528812 0)
(-0.0120232 0.124496 0)
(-0.0283857 0.168331 0)
(-0.0473883 0.191488 0)
(-0.0667201 0.19996 0)
(-0.0854972 0.197812 0)
(-0.103548 0.18719 0)
(-0.121045 0.168767 0)
(-0.138274 0.142264 0)
(-0.155448 0.106921 0)
(-0.172512 0.0618919 0)
(-0.188915 0.00665664 0)
(-0.2033 -0.0584287 0)
(-0.213166 -0.131226 0)
(-0.2146 -0.206462 0)
(-0.202348 -0.273788 0)
(-0.171065 -0.315885 0)
(-0.119212 -0.309016 0)
(-0.0567639 -0.231968 0)
(-0.00630626 -0.0884046 0)
(-0.00134509 0.0590942 0)
(-0.0119779 0.137967 0)
(-0.0268286 0.185118 0)
(-0.0428861 0.209015 0)
(-0.0579716 0.216946 0)
(-0.071539 0.213883 0)
(-0.0838185 0.202513 0)
(-0.0953991 0.183772 0)
(-0.107016 0.157441 0)
(-0.119395 0.122634 0)
(-0.133088 0.0781652 0)
(-0.148264 0.0228951 0)
(-0.164379 -0.0438119 0)
(-0.17971 -0.121304 0)
(-0.190734 -0.206133 0)
(-0.191549 -0.289458 0)
(-0.174228 -0.353287 0)
(-0.132352 -0.367465 0)
(-0.0703806 -0.295102 0)
(-0.00937377 -0.121178 0)
(-0.00184213 0.0657 0)
(-0.0134029 0.150804 0)
(-0.0269466 0.199532 0)
(-0.0393723 0.222416 0)
(-0.0488177 0.228424 0)
(-0.0553558 0.223532 0)
(-0.0598117 0.210961 0)
(-0.0632803 0.191905 0)
(-0.066959 0.166234 0)
(-0.0720563 0.133015 0)
(-0.0796978 0.0908543 0)
(-0.0907822 0.0381532 0)
(-0.105719 -0.0265992 0)
(-0.123956 -0.104269 0)
(-0.143162 -0.193784 0)
(-0.157979 -0.28932 0)
(-0.159046 -0.374946 0)
(-0.135128 -0.417043 0)
(-0.0825154 -0.361798 0)
(-0.0135097 -0.162399 0)
(-0.00307961 0.0740084 0)
(-0.0177831 0.164051 0)
(-0.0305595 0.211487 0)
(-0.0385241 0.230623 0)
(-0.0406183 0.232725 0)
(-0.0380417 0.224791 0)
(-0.032496 0.210421 0)
(-0.0256799 0.190948 0)
(-0.0192386 0.166287 0)
(-0.0147824 0.135499 0)
(-0.0138927 0.0971064 0)
(-0.0180794 0.0492759 0)
(-0.0286459 -0.0100602 0)
(-0.0463572 -0.0829703 0)
(-0.0706756 -0.17076 0)
(-0.0981215 -0.271662 0)
(-0.119825 -0.374834 0)
(-0.121171 -0.448248 0)
(-0.0890193 -0.424103 0)
(-0.0184906 -0.211597 0)
(-0.00557478 0.0865645 0)
(-0.02712 0.179537 0)
(-0.0393973 0.220802 0)
(-0.0410023 0.232077 0)
(-0.0329232 0.227691 0)
(-0.0183381 0.21535 0)
(-0.00015294 0.198628 0)
(0.0192704 0.178715 0)
(0.0379049 0.15543 0)
(0.0538685 0.127803 0)
(0.0652949 0.094367 0)
(0.070261 0.053279 0)
(0.0667805 0.00231618 0)
(0.0529287 -0.0611923 0)
(0.0273074 -0.140292 0)
(-0.00946441 -0.237337 0)
(-0.0513251 -0.349026 0)
(-0.0831938 -0.451447 0)
(-0.0834596 -0.471008 0)
(-0.0231143 -0.26664 0)
(-0.00989281 0.108719 0)
(-0.04297 0.199581 0)
(-0.0521879 0.225735 0)
(-0.0417228 0.22327 0)
(-0.0177731 0.209553 0)
(0.0133941 0.191801 0)
(0.0476037 0.172705 0)
(0.0820246 0.152827 0)
(0.114492 0.131654 0)
(0.143102 0.10812 0)
(0.165952 0.08083 0)
(0.180961 0.0481182 0)
(0.185758 0.00797398 0)
(0.177637 -0.0422072 0)
(0.153647 -0.106109 0)
(0.111416 -0.189026 0)
(0.0522527 -0.295928 0)
(-0.012565 -0.417682 0)
(-0.056778 -0.488891 0)
(-0.0246583 -0.323985 0)
(-0.0178072 0.151686 0)
(-0.0612896 0.223641 0)
(-0.0522511 0.21767 0)
(-0.0143296 0.194947 0)
(0.0354585 0.171071 0)
(0.0886666 0.14909 0)
(0.14131 0.129397 0)
(0.191104 0.1114 0)
(0.236451 0.0940579 0)
(0.275951 0.0761876 0)
(0.30807 0.056553 0)
(0.33094 0.0338277 0)
(0.34218 0.00649246 0)
(0.338793 -0.0274375 0)
(0.316969 -0.071122 0)
(0.272122 -0.130497 0)
(0.200054 -0.216466 0)
(0.102937 -0.338338 0)
(0.00432863 -0.456769 0)
(-0.0159684 -0.3693 0)
(-0.0242172 0.20828 0)
(-0.0379044 0.230372 0)
(0.0372851 0.176541 0)
(0.125068 0.136858 0)
(0.20584 0.109061 0)
(0.278017 0.0882161 0)
(0.342266 0.0721216 0)
(0.398876 0.0591881 0)
(0.447895 0.048033 0)
(0.489092 0.0375242 0)
(0.521796 0.026718 0)
(0.544771 0.0147655 0)
(0.556133 0.000792427 0)
(0.553228 -0.0162738 0)
(0.532237 -0.0382713 0)
(0.487695 -0.0691393 0)
(0.411111 -0.119096 0)
(0.290865 -0.209352 0)
(0.133118 -0.338289 0)
(0.0387664 -0.34036 0)
(0.241889 0.109137 0)
(0.313467 0.0971228 0)
(0.444338 0.0569698 0)
(0.549647 0.0351063 0)
(0.624074 0.0237339 0)
(0.67961 0.0167031 0)
(0.723479 0.0119741 0)
(0.75878 0.00869018 0)
(0.787064 0.00625408 0)
(0.80913 0.00423352 0)
(0.825155 0.00233343 0)
(0.83477 0.000346167 0)
(0.837109 -0.00190481 0)
(0.830753 -0.00458723 0)
(0.813396 -0.00802672 0)
(0.781143 -0.012886 0)
(0.725702 -0.0212333 0)
(0.629869 -0.0380965 0)
(0.459269 -0.0855533 0)
(0.304893 -0.125698 0)
)
;

boundaryField
{
    movingWall
    {
        type            fixedValue;
        value           uniform (1 0 0);
    }
    fixedWalls
    {
        type            fixedValue;
        value           uniform (0 0 0);
    }
    frontAndBack
    {
        type            empty;
    }
}


// ************************************************************************* //
