/*--------------------------------*- C++ -*----------------------------------*\
  =========                 |
  \\      /  F ield         | OpenFOAM: The Open Source CFD Toolbox
   \\    /   O peration     | Website:  https://openfoam.org
    \\  /    A nd           | Version:  13
     \\/     M anipulation  |
\*---------------------------------------------------------------------------*/
FoamFile
{
    format      ascii;
    class       volVectorField;
    location    "39";
    object      U_0;
}
// * * * * * * * * * * * * * * * * * * * * * * * * * * * * * * * * * * * * * //

dimensions      [0 1 -1 0 0 0 0];

internalField   nonuniform List<vector> 
400
(
(0.000181826 -0.000185693 0)
(-0.000139022 3.07878e-05 0)
(-0.00153258 0.000268567 0)
(-0.00378043 0.000419396 0)
(-0.00653535 0.000499083 0)
(-0.00949648 0.000529369 0)
(-0.0124142 0.000520028 0)
(-0.0150555 0.000470025 0)
(-0.0171803 0.000372625 0)
(-0.0185425 0.000222469 0)
(-0.0189169 2.28067e-05 0)
(-0.0181488 -0.000208988 0)
(-0.016213 -0.000439026 0)
(-0.0132646 -0.000620836 0)
(-0.00965934 -0.000705879 0)
(-0.00592268 -0.000659246 0)
(-0.00265993 -0.000474708 0)
(-0.000412116 -0.000182705 0)
(0.000536336 0.000135905 0)
(0.000308523 0.00030157 0)
(-4.78054e-05 0.000137934 0)
(-0.00207455 0.00192893 0)
(-0.00641777 0.0037517 0)
(-0.0125521 0.00501197 0)
(-0.0197212 0.00567519 0)
(-0.0272554 0.00581767 0)
(-0.034551 0.00549001 0)
(-0.0410271 0.00469875 0)
(-0.0461054 0.00343422 0)
(-0.049229 0.00171576 0)
(-0.0499261 -0.000364152 0)
(-0.047907 -0.00261165 0)
(-0.0431725 -0.00473049 0)
(-0.0361 -0.00635847 0)
(-0.0274724 -0.00714348 0)
(-0.0184136 -0.00684852 0)
(-0.0102109 -0.00545803 0)
(-0.00403237 -0.00325291 0)
(-0.000579531 -0.000863422 0)
(0.000220266 0.000585482 0)
(-0.000352935 0.00171414 0)
(-0.00447342 0.00644994 0)
(-0.0118365 0.0106464 0)
(-0.0215391 0.013484 0)
(-0.0324871 0.0149138 0)
(-0.0437703 0.0150634 0)
(-0.0545521 0.0140219 0)
(-0.064018 0.0118119 0)
(-0.0713678 0.00844687 0)
(-0.0758511 0.00402125 0)
(-0.0768498 -0.0012053 0)
(-0.0739925 -0.00675781 0)
(-0.0672804 -0.011952 0)
(-0.0571919 -0.015973 0)
(-0.0447283 -0.0180328 0)
(-0.0313589 -0.0175916 0)
(-0.0188218 -0.0145928 0)
(-0.00878137 -0.00963705 0)
(-0.00241836 -0.00405497 0)
(3.40423e-05 1.92337e-05 0)
(-0.000629425 0.00458295 0)
(-0.00678963 0.0136372 0)
(-0.0170498 0.0208651 0)
(-0.0300608 0.0255609 0)
(-0.0443886 0.0277893 0)
(-0.0589427 0.0277688 0)
(-0.0727406 0.0256388 0)
(-0.084827 0.0214457 0)
(-0.0942649 0.0152415 0)
(-0.100174 0.00722147 0)
(-0.101812 -0.0021513 0)
(-0.0986952 -0.0120731 0)
(-0.0907313 -0.0214056 0)
(-0.0783539 -0.0287876 0)
(-0.0626196 -0.0328694 0)
(-0.0452117 -0.032664 0)
(-0.0282773 -0.0279536 0)
(-0.0140614 -0.0196167 0)
(-0.00442711 -0.00973957 0)
(-0.000126162 -0.00152092 0)
(-0.000867636 0.00862845 0)
(-0.00886211 0.0232643 0)
(-0.0217533 0.0340792 0)
(-0.0377536 0.040806 0)
(-0.0551106 0.0437959 0)
(-0.0725982 0.0434344 0)
(-0.0891545 0.0399377 0)
(-0.103756 0.0333823 0)
(-0.11539 0.0238553 0)
(-0.123079 0.0116415 0)
(-0.125947 -0.00260967 0)
(-0.123329 -0.0177802 0)
(-0.114915 -0.0322688 0)
(-0.100932 -0.0441056 0)
(-0.0823235 -0.051237 0)
(-0.0608739 -0.0520079 0)
(-0.0391456 -0.0457915 0)
(-0.020133 -0.033574 0)
(-0.0066723 -0.0181975 0)
(-0.000272387 -0.00409251 0)
(-0.00106402 0.013691 0)
(-0.0106109 0.0350313 0)
(-0.0257573 0.0499386 0)
(-0.0443371 0.0588566 0)
(-0.0643311 0.0625958 0)
(-0.0844256 0.0618002 0)
(-0.103537 0.0568001 0)
(-0.120635 0.0477045 0)
(-0.134685 0.0346115 0)
(-0.144637 0.0178479 0)
(-0.149467 -0.0018175 0)
(-0.148261 -0.0230213 0)
(-0.140371 -0.0437401 0)
(-0.12564 -0.0613588 0)
(-0.104699 -0.0729565 0)
(-0.0792613 -0.0758987 0)
(-0.0522524 -0.0687442 0)
(-0.0275804 -0.0522489 0)
(-0.00943542 -0.0299556 0)
(-0.000447451 -0.0078456 0)
(-0.00121114 0.0195797 0)
(-0.0119623 0.0485577 0)
(-0.0288861 0.067999 0)
(-0.0495229 0.0792736 0)
(-0.0716568 0.0838055 0)
(-0.0939372 0.0825898 0)
(-0.115313 0.0761129 0)
(-0.134806 0.0645162 0)
(-0.151413 0.0478701 0)
(-0.164053 0.0264672 0)
(-0.171565 0.00108682 0)
(-0.172757 -0.0267855 0)
(-0.166551 -0.0548037 0)
(-0.152243 -0.0797251 0)
(-0.129911 -0.0976204 0)
(-0.100916 -0.104507 0)
(-0.0683424 -0.0975439 0)
(-0.0370663 -0.076658 0)
(-0.0130778 -0.0458646 0)
(-0.000702741 -0.0131094 0)
(-0.0013004 0.0260654 0)
(-0.0128453 0.063376 0)
(-0.0309684 0.0876993 0)
(-0.053009 0.101485 0)
(-0.076628 0.106897 0)
(-0.100486 0.10537 0)
(-0.123614 0.0975927 0)
(-0.145146 0.0837424 0)
(-0.164176 0.0638194 0)
(-0.179661 0.037992 0)
(-0.190362 0.00691471 0)
(-0.194846 -0.0279749 0)
(-0.191587 -0.0641797 0)
(-0.179218 -0.0979464 0)
(-0.157014 -0.124292 0)
(-0.125593 -0.137542 0)
(-0.0877635 -0.132722 0)
(-0.0491676 -0.107955 0)
(-0.0179948 -0.0670961 0)
(-0.00110141 -0.0204173 0)
(-0.00132712 0.0328845 0)
(-0.0132134 0.0789406 0)
(-0.0318738 0.108361 0)
(-0.0545308 0.124759 0)
(-0.0787877 0.131136 0)
(-0.103356 0.12945 0)
(-0.127396 0.120648 0)
(-0.150212 0.104955 0)
(-0.171077 0.0822739 0)
(-0.189083 0.0525651 0)
(-0.203033 0.0162193 0)
(-0.211375 -0.0255723 0)
(-0.212221 -0.0704093 0)
(-0.203537 -0.114279 0)
(-0.183598 -0.151286 0)
(-0.151833 -0.173883 0)
(-0.110099 -0.174199 0)
(-0.0641857 -0.147149 0)
(-0.0245861 -0.0950646 0)
(-0.00172652 -0.0305205 0)
(-0.00129785 0.0397616 0)
(-0.0130827 0.09466 0)
(-0.0315802 0.12921 0)
(-0.0539565 0.148201 0)
(-0.0778081 0.155547 0)
(-0.101932 0.153817 0)
(-0.125659 0.144276 0)
(-0.148523 0.127239 0)
(-0.17006 0.102503 0)
(-0.189623 0.0697722 0)
(-0.206224 0.0290593 0)
(-0.218392 -0.0188897 0)
(-0.224094 -0.0720708 0)
(-0.220771 -0.126609 0)
(-0.205662 -0.176089 0)
(-0.176632 -0.211243 0)
(-0.133758 -0.220755 0)
(-0.0818698 -0.194634 0)
(-0.0332005 -0.131237 0)
(-0.00269189 -0.0443951 0)
(-0.00124033 0.0464575 0)
(-0.0125844 0.109966 0)
(-0.0302631 0.149426 0)
(-0.051411 0.170778 0)
(-0.0736538 0.17892 0)
(-0.0959136 0.177118 0)
(-0.117736 0.167038 0)
(-0.138944 0.149136 0)
(-0.159417 0.123141 0)
(-0.178892 0.0884985 0)
(-0.196772 0.0447844 0)
(-0.21192 -0.00785378 0)
(-0.222471 -0.0681293 0)
(-0.225668 -0.13278 0)
(-0.217918 -0.195541 0)
(-0.195389 -0.246042 0)
(-0.155634 -0.269529 0)
(-0.10104 -0.249523 0)
(-0.0440085 -0.17677 0)
(-0.00415203 -0.063232 0)
(-0.00121691 0.052851 0)
(-0.0120282 0.124427 0)
(-0.0283951 0.168237 0)
(-0.0474019 0.191384 0)
(-0.0667378 0.199856 0)
(-0.0855189 0.197717 0)
(-0.103575 0.187111 0)
(-0.121076 0.168709 0)
(-0.138309 0.142231 0)
(-0.155488 0.106912 0)
(-0.172555 0.0619074 0)
(-0.188958 0.00669434 0)
(-0.20334 -0.0583718 0)
(-0.2132 -0.131152 0)
(-0.214623 -0.206375 0)
(-0.202358 -0.27369 0)
(-0.171063 -0.315781 0)
(-0.119203 -0.308917 0)
(-0.0567556 -0.231894 0)
(-0.00630468 -0.0883763 0)
(-0.00134614 0.059068 0)
(-0.011987 0.137904 0)
(-0.0268472 0.185031 0)
(-0.0429146 0.208917 0)
(-0.0580095 0.216849 0)
(-0.0715857 0.213795 0)
(-0.0838736 0.202441 0)
(-0.0954618 0.183721 0)
(-0.107086 0.157414 0)
(-0.11947 0.12263 0)
(-0.133166 0.0781835 0)
(-0.148343 0.0229324 0)
(-0.164455 -0.0437594 0)
(-0.179779 -0.12124 0)
(-0.19079 -0.20606 0)
(-0.191589 -0.289375 0)
(-0.17425 -0.353197 0)
(-0.132357 -0.367374 0)
(-0.0703772 -0.295028 0)
(-0.00937179 -0.121146 0)
(-0.0018434 0.06568 0)
(-0.0134154 0.150752 0)
(-0.0269726 0.199457 0)
(-0.0394132 0.222331 0)
(-0.0488726 0.228338 0)
(-0.0554233 0.223455 0)
(-0.0598902 0.210899 0)
(-0.0633679 0.191862 0)
(-0.0670535 0.166213 0)
(-0.0721554 0.133016 0)
(-0.0797991 0.090875 0)
(-0.0908832 0.0381899 0)
(-0.105816 -0.0265513 0)
(-0.124046 -0.104214 0)
(-0.143241 -0.193725 0)
(-0.158042 -0.289256 0)
(-0.159088 -0.374876 0)
(-0.135147 -0.416969 0)
(-0.0825188 -0.361732 0)
(-0.0135076 -0.162366 0)
(-0.00308093 0.073996 0)
(-0.0177973 0.164013 0)
(-0.0305901 0.211429 0)
(-0.038573 0.230554 0)
(-0.0406845 0.232655 0)
(-0.038123 0.224727 0)
(-0.0325896 0.210369 0)
(-0.0257826 0.190913 0)
(-0.0193469 0.166272 0)
(-0.0148933 0.135503 0)
(-0.0140031 0.0971273 0)
(-0.018187 0.0493103 0)
(-0.0287486 -0.0100173 0)
(-0.0464529 -0.0829237 0)
(-0.0707616 -0.170714 0)
(-0.0981938 -0.271616 0)
(-0.119879 -0.374786 0)
(-0.121202 -0.448195 0)
(-0.0890301 -0.424051 0)
(-0.0184895 -0.211565 0)
(-0.00557583 0.0865601 0)
(-0.0271337 0.179515 0)
(-0.0394278 0.220763 0)
(-0.0410524 0.232027 0)
(-0.0329919 0.227638 0)
(-0.018423 0.2153 0)
(-0.000250368 0.198588 0)
(0.0191646 0.178688 0)
(0.0377949 0.155418 0)
(0.0537583 0.127806 0)
(0.0651877 0.094385 0)
(0.0701594 0.0533084 0)
(0.0666859 0.00235251 0)
(0.0528421 -0.0611539 0)
(0.0272295 -0.140256 0)
(-0.00953184 -0.237304 0)
(-0.0513786 -0.348996 0)
(-0.083229 -0.451416 0)
(-0.0834754 -0.470976 0)
(-0.023115 -0.266615 0)
(-0.00989305 0.108722 0)
(-0.04298 0.199573 0)
(-0.0522121 0.225715 0)
(-0.0417646 0.22324 0)
(-0.0178326 0.209517 0)
(0.0133189 0.191765 0)
(0.0475163 0.172674 0)
(0.0819291 0.152805 0)
(0.114393 0.131643 0)
(0.143004 0.108121 0)
(0.165857 0.0808427 0)
(0.180873 0.0481402 0)
(0.185679 0.00800177 0)
(0.177566 -0.0421779 0)
(0.153586 -0.106082 0)
(0.111364 -0.189005 0)
(0.0522096 -0.295912 0)
(-0.0125959 -0.417668 0)
(-0.0567941 -0.488874 0)
(-0.0246601 -0.323969 0)
(-0.017806 0.151691 0)
(-0.0612925 0.223643 0)
(-0.0522625 0.217663 0)
(-0.0143536 0.194932 0)
(0.0354203 0.171051 0)
(0.0886145 0.149067 0)
(0.141246 0.129377 0)
(0.191031 0.111384 0)
(0.236373 0.0940491 0)
(0.275872 0.0761869 0)
(0.307994 0.0565603 0)
(0.33087 0.0338416 0)
(0.342119 0.00651051 0)
(0.338741 -0.0274185 0)
(0.316927 -0.0711053 0)
(0.272089 -0.130485 0)
(0.200027 -0.216459 0)
(0.102917 -0.338334 0)
(0.00431669 -0.456765 0)
(-0.0159709 -0.369293 0)
(-0.0242151 0.208284 0)
(-0.0379012 0.230376 0)
(0.0372867 0.176542 0)
(0.125064 0.136853 0)
(0.205827 0.109052 0)
(0.277993 0.0882053 0)
(0.342232 0.0721111 0)
(0.398832 0.0591797 0)
(0.447845 0.0480282 0)
(0.489038 0.0375239 0)
(0.521744 0.0267222 0)
(0.544724 0.0147731 0)
(0.556094 0.00080197 0)
(0.553197 -0.0162642 0)
(0.532216 -0.0382634 0)
(0.48768 -0.0691342 0)
(0.411101 -0.119094 0)
(0.290858 -0.209352 0)
(0.133114 -0.33829 0)
(0.0387637 -0.340359 0)
(0.241891 0.109138 0)
(0.313471 0.0971249 0)
(0.444344 0.0569707 0)
(0.549652 0.035106 0)
(0.624074 0.0237327 0)
(0.679604 0.0167016 0)
(0.723467 0.0119728 0)
(0.758762 0.00868957 0)
(0.787043 0.00625432 0)
(0.809108 0.00423454 0)
(0.825135 0.00233491 0)
(0.834753 0.000347827 0)
(0.837098 -0.00190331 0)
(0.830747 -0.00458606 0)
(0.813395 -0.00802609 0)
(0.781146 -0.0128864 0)
(0.725705 -0.0212346 0)
(0.629871 -0.0380978 0)
(0.45927 -0.0855547 0)
(0.304893 -0.125698 0)
)
;

boundaryField
{
    movingWall
    {
        type            calculated;
        value           uniform (1 0 0);
    }
    fixedWalls
    {
        type            calculated;
        value           uniform (0 0 0);
    }
    frontAndBack
    {
        type            empty;
    }
}


// ************************************************************************* //
