/*--------------------------------*- C++ -*----------------------------------*\
  =========                 |
  \\      /  F ield         | OpenFOAM: The Open Source CFD Toolbox
   \\    /   O peration     | Website:  https://openfoam.org
    \\  /    A nd           | Version:  13
     \\/     M anipulation  |
\*---------------------------------------------------------------------------*/
FoamFile
{
    format      ascii;
    class       volScalarField;
    location    "49";
    object      p;
}
// * * * * * * * * * * * * * * * * * * * * * * * * * * * * * * * * * * * * * //

dimensions      [0 2 -2 0 0 0 0];

internalField   nonuniform List<scalar> 
400
(
1.45907e-07
-0.000530115
-0.0011779
-0.00168014
-0.00191685
-0.00183853
-0.0014205
-0.000651647
0.000459107
0.00186757
0.00347918
0.00514274
0.0066615
0.0078249
0.00845914
0.00848386
0.0079555
0.00708109
0.00619383
0.00563962
0.000538131
-1.08023e-05
-0.00058325
-0.000984626
-0.00116292
-0.0010912
-0.000748075
-0.000118256
0.000798814
0.00197409
0.00333392
0.0047529
0.00606124
0.0070732
0.00763305
0.00766741
0.00722359
0.00647453
0.00568247
0.00511869
0.00121121
0.000524664
-8.02381e-05
-0.000446416
-0.000609502
-0.000576959
-0.000333187
0.000144683
0.000873409
0.00184583
0.00301233
0.00426913
0.00546135
0.00640773
0.00694624
0.00698886
0.00656251
0.00580815
0.00493137
0.00419716
0.00169505
0.000809828
8.68337e-05
-0.00032276
-0.000533726
-0.0005864
-0.000468653
-0.000145267
0.000423014
0.0012563
0.00233042
0.00355776
0.00478365
0.00580747
0.00643059
0.00652082
0.00606676
0.00518237
0.00405335
0.00301674
0.00173321
0.000647199
-0.000219853
-0.000717094
-0.00102667
-0.00121409
-0.00126456
-0.00112427
-0.000724512
-1.05603e-05
0.00102548
0.00231603
0.00370349
0.00495468
0.0058092
0.00605727
0.00561842
0.00456708
0.00308886
0.00165392
0.00111296
-0.0001518
-0.00116417
-0.00177894
-0.00223489
-0.00261453
-0.00289408
-0.0029947
-0.00281034
-0.00224092
-0.00123302
0.000180305
0.00184761
0.00350021
0.00479349
0.00539795
0.00511342
0.00393648
0.00204975
0.00011825
-0.000344372
-0.00175542
-0.00290611
-0.00366569
-0.00431988
-0.00496192
-0.00555482
-0.00598982
-0.00611535
-0.00577202
-0.00483933
-0.00329163
-0.00124669
0.00100313
0.00301398
0.00428647
0.0044234
0.00326485
0.000950875
-0.00158828
-0.00277586
-0.00429447
-0.00557239
-0.00650343
-0.00741183
-0.00839861
-0.00941309
-0.0103149
-0.0109004
-0.0109361
-0.0102082
-0.00859111
-0.00612595
-0.00309125
-2.4099e-05
0.00235897
0.00335868
0.00252178
-0.000158459
-0.00341735
-0.00626497
-0.00784777
-0.00923616
-0.0103587
-0.0115723
-0.0129876
-0.0145445
-0.0160741
-0.0173187
-0.0179582
-0.0176578
-0.0161456
-0.0133217
-0.00938129
-0.00490883
-0.000857248
0.00165507
0.00167549
-0.00115759
-0.0052128
-0.0108319
-0.0124312
-0.0139006
-0.0152122
-0.016756
-0.0186601
-0.0208652
-0.0231821
-0.0253029
-0.0268158
-0.0272442
-0.0261255
-0.0231482
-0.0183223
-0.0121786
-0.00586099
-0.00099282
0.000713953
-0.00180404
-0.00662344
-0.0164336
-0.0179964
-0.0194905
-0.0209394
-0.0227784
-0.02517
-0.0280711
-0.0312846
-0.0344616
-0.0371028
-0.0385821
-0.0382171
-0.035431
-0.0299298
-0.0220412
-0.0129586
-0.0047981
-0.000281365
-0.00165492
-0.00697126
-0.0229835
-0.0244461
-0.0258589
-0.0273056
-0.0293018
-0.0320747
-0.0356156
-0.0397317
-0.0440435
-0.0479739
-0.0507581
-0.0515005
-0.0492871
-0.0434742
-0.034012
-0.021911
-0.00960748
-0.000960657
6.62547e-05
-0.00505602
-0.0304007
-0.0316716
-0.0328089
-0.0339771
-0.0358475
-0.0387572
-0.0427489
-0.0476385
-0.0530185
-0.0582407
-0.0624132
-0.0644357
-0.063106
-0.0573601
-0.0466584
-0.0315732
-0.0145285
-0.00040399
0.00470346
0.00112354
-0.0387134
-0.039619
-0.0401275
-0.0405451
-0.0418331
-0.0444941
-0.0486258
-0.0540384
-0.0602807
-0.0666263
-0.0720618
-0.0753055
-0.0748923
-0.0693726
-0.0576825
-0.0397703
-0.0176406
0.00323096
0.0145218
0.0147267
-0.0482613
-0.0483913
-0.0476199
-0.0465501
-0.046629
-0.0485594
-0.0524599
-0.0580888
-0.0649099
-0.0720886
-0.0784756
-0.0826129
-0.0827977
-0.0772474
-0.0644231
-0.0436042
-0.0160407
0.0128675
0.0329713
0.0402905
-0.0600427
-0.0584158
-0.0551525
-0.0515179
-0.0496426
-0.0503575
-0.0536924
-0.0592663
-0.0663902
-0.0740703
-0.0809859
-0.0854826
-0.0856177
-0.0792997
-0.0645771
-0.0401291
-0.00630983
0.0322629
0.0644618
0.0832568
-0.0763048
-0.0707596
-0.0626948
-0.055003
-0.0504161
-0.0495445
-0.0521096
-0.0574635
-0.0646816
-0.0725539
-0.0795488
-0.0837845
-0.0830496
-0.0749097
-0.0569763
-0.0273399
0.0145649
0.0654861
0.114381
0.150181
-0.104204
-0.0879683
-0.0700053
-0.0562834
-0.0483837
-0.0457964
-0.0476124
-0.0527633
-0.060003
-0.0678689
-0.074612
-0.0781238
-0.075917
-0.0651518
-0.042844
-0.00617798
0.046786
0.115348
0.191499
0.258308
-0.176002
-0.114911
-0.0736191
-0.0518895
-0.0411801
-0.0375815
-0.0393037
-0.0447683
-0.0523622
-0.0604108
-0.0670284
-0.0699655
-0.0665446
-0.0535905
-0.0273777
0.0164296
0.0827659
0.17741
0.305455
0.452709
-0.355872
-0.155275
-0.0704421
-0.0427827
-0.0313496
-0.0276079
-0.0297975
-0.0359931
-0.0442498
-0.0527648
-0.0596233
-0.0625641
-0.0588604
-0.0451832
-0.0172427
0.0308288
0.108448
0.233385
0.434831
0.735895
)
;

boundaryField
{
    movingWall
    {
        type            zeroGradient;
    }
    fixedWalls
    {
        type            zeroGradient;
    }
    frontAndBack
    {
        type            empty;
    }
}


// ************************************************************************* //
