/*--------------------------------*- C++ -*----------------------------------*\
  =========                 |
  \\      /  F ield         | OpenFOAM: The Open Source CFD Toolbox
   \\    /   O peration     | Website:  https://openfoam.org
    \\  /    A nd           | Version:  13
     \\/     M anipulation  |
\*---------------------------------------------------------------------------*/
FoamFile
{
    format      ascii;
    class       volScalarField;
    location    "49";
    object      p;
}
// * * * * * * * * * * * * * * * * * * * * * * * * * * * * * * * * * * * * * //

dimensions      [0 2 -2 0 0 0 0];

internalField   nonuniform List<scalar> 
400
(
7.7054e-09
-0.000572532
-0.00121613
-0.00171901
-0.00195935
-0.00188482
-0.00147061
-0.000705661
0.000401154
0.00180581
0.00341454
0.00507487
0.0065909
0.00775095
0.00837965
0.00839549
0.00785521
0.00696877
0.00604788
0.00549421
0.000569838
-2.04387e-05
-0.000569805
-0.000957167
-0.00113216
-0.00106213
-0.000726119
-0.000109379
0.000788633
0.0019393
0.00326964
0.00465998
0.00594056
0.00692967
0.00747411
0.00750166
0.00705908
0.00631871
0.00554313
0.00497251
0.00124559
0.000492843
-8.68534e-05
-0.00044149
-0.000606281
-0.000576434
-0.000337426
0.000132448
0.000849555
0.00180675
0.00295471
0.00419165
0.0053643
0.00629369
0.00681913
0.00685278
0.00642063
0.00566806
0.00480881
0.00403706
0.00174049
0.000763571
7.35253e-05
-0.000322072
-0.000537247
-0.000592868
-0.000478374
-0.000160302
0.00039989
0.00122195
0.00228156
0.00349274
0.00470159
0.00570962
0.00631929
0.00639805
0.00593341
0.00505046
0.00394829
0.00284432
0.00179537
0.000595628
-0.000227819
-0.000704953
-0.00101827
-0.00120736
-0.00125949
-0.00112314
-0.000730626
-2.79472e-05
0.000991642
0.0022635
0.00362997
0.00486115
0.00569859
0.00593224
0.00548031
0.00443539
0.00299983
0.00146199
0.0011946
-0.000203109
-0.00116338
-0.00175281
-0.00221153
-0.00259078
-0.00286937
-0.00297131
-0.00279203
-0.00223302
-0.00124415
0.000150439
0.00179277
0.00341976
0.00469015
0.00527466
0.00497182
0.00380559
0.00197892
-0.000104143
-0.000241725
-0.00180018
-0.00289233
-0.0036223
-0.0042778
-0.00491673
-0.00550517
-0.00593763
-0.00606465
-0.00572853
-0.004807
-0.00328525
-0.00127041
0.000946627
0.00292622
0.00416979
0.00427919
0.00313547
0.000902524
-0.00185635
-0.00265203
-0.00432643
-0.00554132
-0.00643935
-0.00734719
-0.00832782
-0.00933397
-0.0102288
-0.0108113
-0.0108505
-0.0101336
-0.00853906
-0.00610712
-0.00311232
-8.6494e-05
0.00225497
0.00321258
0.0023952
-0.000177456
-0.00375305
-0.00612142
-0.00786178
-0.0091848
-0.0102719
-0.0114831
-0.0128894
-0.0144345
-0.015953
-0.0171897
-0.0178277
-0.0175354
-0.0160428
-0.0132532
-0.00935757
-0.0049361
-0.00094149
0.001508
0.00155449
-0.00113724
-0.00564689
-0.0106715
-0.0124237
-0.0138275
-0.0151021
-0.0166423
-0.0185359
-0.0207272
-0.0230305
-0.0251405
-0.0266492
-0.0270842
-0.0259776
-0.0230343
-0.0182542
-0.0121678
-0.00592223
-0.00114238
0.000602926
-0.00173149
-0.00719525
-0.0162605
-0.0179654
-0.0193958
-0.0208062
-0.0226416
-0.0250234
-0.0279114
-0.0311116
-0.0342776
-0.0369139
-0.0383954
-0.0380068
-0.0352842
-0.0298336
-0.0220052
-0.0130065
-0.00495992
-0.000375674
-0.00151614
-0.00772079
-0.022803
-0.0243901
-0.0257427
-0.0271485
-0.0291436
-0.0319107
-0.0354425
-0.0395495
-0.043855
-0.0477847
-0.05058
-0.0513772
-0.0491635
-0.0433941
-0.033989
-0.0219778
-0.00980604
-0.00102488
0.000279931
-0.00600011
-0.0302226
-0.0315863
-0.0326696
-0.0337921
-0.0356682
-0.03858
-0.042569
-0.0474551
-0.0528344
-0.0580627
-0.0622511
-0.0643107
-0.0630224
-0.0573321
-0.0466929
-0.0317051
-0.0148012
-0.000417187
0.00496549
2.26911e-05
-0.03856
-0.0394895
-0.0399613
-0.040327
-0.041635
-0.0443096
-0.0484456
-0.0538594
-0.060106
-0.0664655
-0.0719295
-0.0752216
-0.0748704
-0.0694215
-0.0578071
-0.0400022
-0.0180234
0.00327944
0.0146985
0.0135556
-0.0481748
-0.048157
-0.0474035
-0.0462842
-0.0464121
-0.0483713
-0.0522816
-0.0579132
-0.0647395
-0.0719355
-0.0783607
-0.0825613
-0.0828323
-0.0773739
-0.0646453
-0.0439371
-0.0165435
0.0130188
0.032931
0.0392806
-0.060235
-0.0579577
-0.0548673
-0.0512135
-0.0494273
-0.0501785
-0.0535204
-0.0590938
-0.0662201
-0.0739188
-0.0808795
-0.0854535
-0.085707
-0.0795199
-0.064942
-0.0406113
-0.00697895
0.0328167
0.0647937
0.0836767
-0.0774815
-0.0694733
-0.0620875
-0.0545495
-0.0501391
-0.0493252
-0.0519045
-0.0572611
-0.0644863
-0.0723851
-0.0794401
-0.0837785
-0.0832185
-0.0752831
-0.0576215
-0.0282114
0.0133524
0.0666609
0.115752
0.154807
-0.108926
-0.0850402
-0.0697735
-0.0563917
-0.0485412
-0.0458813
-0.0476244
-0.0527151
-0.0599173
-0.0677771
-0.0745525
-0.0781402
-0.0761045
-0.0655427
-0.0436433
-0.00744517
0.044743
0.114933
0.188078
0.263281
-0.168693
-0.100746
-0.0730932
-0.0522883
-0.0413103
-0.0376998
-0.0394421
-0.0448656
-0.0524159
-0.0604471
-0.067074
-0.070048
-0.0666876
-0.0537885
-0.0278899
0.0154098
0.0800715
0.17276
0.285854
0.445985
-0.402754
-0.139031
-0.0734593
-0.0447303
-0.0305719
-0.0266176
-0.0290857
-0.0353736
-0.0436542
-0.0522075
-0.0591241
-0.0621457
-0.0586176
-0.0452141
-0.017451
0.0310786
0.108495
0.236657
0.427487
0.79368
)
;

boundaryField
{
    movingWall
    {
        type            zeroGradient;
    }
    fixedWalls
    {
        type            zeroGradient;
    }
    frontAndBack
    {
        type            empty;
    }
}


// ************************************************************************* //
