/*--------------------------------*- C++ -*----------------------------------*\
  =========                 |
  \\      /  F ield         | OpenFOAM: The Open Source CFD Toolbox
   \\    /   O peration     | Website:  https://openfoam.org
    \\  /    A nd           | Version:  13
     \\/     M anipulation  |
\*---------------------------------------------------------------------------*/
FoamFile
{
    format      ascii;
    class       volVectorField;
    location    "49";
    object      U;
}
// * * * * * * * * * * * * * * * * * * * * * * * * * * * * * * * * * * * * * //

dimensions      [0 1 -1 0 0 0 0];

internalField   nonuniform List<vector> 
400
(
(0.000183326 -0.000188035 0)
(-0.000136746 2.89829e-05 0)
(-0.00153502 0.000268053 0)
(-0.00379174 0.000419427 0)
(-0.0065582 0.000499496 0)
(-0.00953236 0.000530157 0)
(-0.0124636 0.000521173 0)
(-0.0151174 0.000471418 0)
(-0.0172523 0.000374038 0)
(-0.0186206 0.000223576 0)
(-0.0189957 2.32547e-05 0)
(-0.0182218 -0.000209454 0)
(-0.0162741 -0.000440414 0)
(-0.0133092 -0.00062284 0)
(-0.0096856 -0.000707923 0)
(-0.0059322 -0.000660649 0)
(-0.00265752 -0.00047495 0)
(-0.000404516 -0.000181618 0)
(0.000542982 0.000138045 0)
(0.000310595 0.000303591 0)
(-4.69717e-05 0.000135339 0)
(-0.00208237 0.00193534 0)
(-0.00644492 0.00376638 0)
(-0.0126076 0.00503292 0)
(-0.01981 0.0056999 0)
(-0.0273793 0.00584388 0)
(-0.0347089 0.00551539 0)
(-0.0412147 0.00472058 0)
(-0.046315 0.00344949 0)
(-0.0494496 0.00172165 0)
(-0.0501442 -0.000369651 0)
(-0.0481085 -0.00262894 0)
(-0.0433444 -0.00475775 0)
(-0.0362331 -0.00639165 0)
(-0.0275629 -0.00717694 0)
(-0.0184641 -0.00687627 0)
(-0.0102301 -0.00547541 0)
(-0.00403291 -0.0032583 0)
(-0.000574174 -0.000859499 0)
(0.000222705 0.000592252 0)
(-0.000353632 0.00171833 0)
(-0.00449576 0.0064771 0)
(-0.0118947 0.0106933 0)
(-0.0216453 0.0135446 0)
(-0.0326463 0.0149817 0)
(-0.0439833 0.0151325 0)
(-0.0548154 0.0140862 0)
(-0.0643235 0.0118646 0)
(-0.0717028 0.00848122 0)
(-0.0761992 0.00403128 0)
(-0.077192 -0.00122314 0)
(-0.0743095 -0.00680334 0)
(-0.0675548 -0.0120205 0)
(-0.0574109 -0.0160552 0)
(-0.0448862 -0.0181163 0)
(-0.0314577 -0.0176632 0)
(-0.0188715 -0.0146422 0)
(-0.00879743 -0.00965992 0)
(-0.00241855 -0.00405569 0)
(3.6063e-05 2.87546e-05 0)
(-0.000631722 0.00460281 0)
(-0.00682681 0.0137016 0)
(-0.0171392 0.0209642 0)
(-0.0302162 0.0256821 0)
(-0.0446139 0.0279204 0)
(-0.0592367 0.0278987 0)
(-0.0730971 0.0257563 0)
(-0.0852344 0.0215391 0)
(-0.0947069 0.0152996 0)
(-0.10063 0.00723507 0)
(-0.102261 -0.00218704 0)
(-0.0991138 -0.0121569 0)
(-0.0910994 -0.021529 0)
(-0.0786559 -0.0289355 0)
(-0.0628467 -0.0330215 0)
(-0.0453637 -0.0327986 0)
(-0.028363 -0.0280526 0)
(-0.0140973 -0.0196712 0)
(-0.00443494 -0.00975422 0)
(-0.000124472 -0.00151205 0)
(-0.000871355 0.00867185 0)
(-0.00891181 0.02338 0)
(-0.0218685 0.0342464 0)
(-0.0379489 0.0410031 0)
(-0.0553884 0.0440039 0)
(-0.0729551 0.0436363 0)
(-0.0895818 0.0401168 0)
(-0.10424 0.033522 0)
(-0.115912 0.02394 0)
(-0.123618 0.0116593 0)
(-0.126479 -0.00266462 0)
(-0.123831 -0.0179055 0)
(-0.115364 -0.0324529 0)
(-0.10131 -0.044328 0)
(-0.0826186 -0.05147 0)
(-0.0610812 -0.0522205 0)
(-0.0392706 -0.0459564 0)
(-0.0201911 -0.033675 0)
(-0.00668878 -0.0182366 0)
(-0.000270951 -0.0040885 0)
(-0.00106872 0.013764 0)
(-0.0106685 0.0352087 0)
(-0.0258886 0.0501857 0)
(-0.0445565 0.0591404 0)
(-0.0646395 0.0628896 0)
(-0.0848179 0.0620809 0)
(-0.104003 0.0570459 0)
(-0.121161 0.0478941 0)
(-0.135251 0.0347257 0)
(-0.145223 0.0178727 0)
(-0.15005 -0.00188898 0)
(-0.148818 -0.0231861 0)
(-0.14088 -0.0439848 0)
(-0.12608 -0.0616589 0)
(-0.105055 -0.0732781 0)
(-0.0795219 -0.0762021 0)
(-0.0524177 -0.068991 0)
(-0.0276626 -0.0524121 0)
(-0.00946152 -0.0300307 0)
(-0.00044634 -0.00785112 0)
(-0.00121612 0.0196852 0)
(-0.0120216 0.0488016 0)
(-0.0290201 0.0683308 0)
(-0.0497455 0.0796482 0)
(-0.0719678 0.084188 0)
(-0.0943306 0.0829511 0)
(-0.115778 0.0764264 0)
(-0.135329 0.064757 0)
(-0.151977 0.0480164 0)
(-0.16464 0.0265031 0)
(-0.172154 0.00100471 0)
(-0.173328 -0.0269829 0)
(-0.167085 -0.0551022 0)
(-0.152719 -0.0800988 0)
(-0.130309 -0.0980315 0)
(-0.10122 -0.104908 0)
(-0.0685449 -0.0978853 0)
(-0.0371727 -0.0768985 0)
(-0.0131144 -0.045988 0)
(-0.00070217 -0.0131296 0)
(-0.00130481 0.0262024 0)
(-0.0128989 0.0636844 0)
(-0.03109 0.0881127 0)
(-0.0532111 0.101946 0)
(-0.0769099 0.107363 0)
(-0.100841 0.105807 0)
(-0.124033 0.0979695 0)
(-0.145616 0.0840315 0)
(-0.164683 0.0639974 0)
(-0.18019 0.0380422 0)
(-0.190898 0.00682917 0)
(-0.195374 -0.0281939 0)
(-0.192091 -0.064519 0)
(-0.179682 -0.0983805 0)
(-0.157418 -0.124783 0)
(-0.125917 -0.138038 0)
(-0.0879924 -0.133164 0)
(-0.0492954 -0.108284 0)
(-0.0180422 -0.0672795 0)
(-0.00110173 -0.0204579 0)
(-0.00133008 0.0330479 0)
(-0.0132538 0.0793037 0)
(-0.0319675 0.108845 0)
(-0.0546883 0.125295 0)
(-0.0790082 0.131673 0)
(-0.103634 0.12995 0)
(-0.127722 0.121076 0)
(-0.150576 0.105284 0)
(-0.171467 0.0824784 0)
(-0.189489 0.0526293 0)
(-0.203447 0.0161358 0)
(-0.211789 -0.0258012 0)
(-0.212627 -0.0707714 0)
(-0.203926 -0.114752 0)
(-0.183956 -0.151835 0)
(-0.15214 -0.174457 0)
(-0.110332 -0.174733 0)
(-0.0643266 -0.14757 0)
(-0.0246432 -0.0953169 0)
(-0.00172825 -0.0305872 0)
(-0.00129867 0.0399421 0)
(-0.0131035 0.0950609 0)
(-0.0316324 0.129743 0)
(-0.0540479 0.14879 0)
(-0.0779383 0.156136 0)
(-0.102097 0.15436 0)
(-0.12585 0.144739 0)
(-0.148732 0.127592 0)
(-0.170279 0.102722 0)
(-0.189847 0.069844 0)
(-0.206451 0.0289785 0)
(-0.218623 -0.019119 0)
(-0.22433 -0.0724368 0)
(-0.221014 -0.127092 0)
(-0.205909 -0.176662 0)
(-0.176869 -0.211862 0)
(-0.13396 -0.221359 0)
(-0.0820075 -0.195139 0)
(-0.0332637 -0.131561 0)
(-0.00269569 -0.0444931 0)
(-0.00123864 0.0466426 0)
(-0.012581 0.110382 0)
(-0.0302641 0.149982 0)
(-0.0514206 0.171392 0)
(-0.0736726 0.179532 0)
(-0.0959386 0.177679 0)
(-0.117762 0.167511 0)
(-0.138965 0.149491 0)
(-0.159428 0.123358 0)
(-0.178893 0.088566 0)
(-0.196767 0.044702 0)
(-0.211916 -0.00807854 0)
(-0.222481 -0.0684829 0)
(-0.225705 -0.133246 0)
(-0.217992 -0.196098 0)
(-0.1955 -0.246661 0)
(-0.155762 -0.27016 0)
(-0.10115 -0.250085 0)
(-0.0440702 -0.177157 0)
(-0.00415849 -0.063364 0)
(-0.00121273 0.0530267 0)
(-0.0119992 0.124831 0)
(-0.0283407 0.168784 0)
(-0.0473226 0.191991 0)
(-0.0666354 0.20046 0)
(-0.0853931 0.198267 0)
(-0.103423 0.187568 0)
(-0.120897 0.169044 0)
(-0.138103 0.142426 0)
(-0.155258 0.106962 0)
(-0.172308 0.0618153 0)
(-0.188709 0.00647379 0)
(-0.203108 -0.0587033 0)
(-0.213007 -0.131578 0)
(-0.214491 -0.20688 0)
(-0.202301 -0.274259 0)
(-0.171075 -0.316385 0)
(-0.119255 -0.309488 0)
(-0.0568036 -0.232321 0)
(-0.0063139 -0.0885404 0)
(-0.00133991 0.0592203 0)
(-0.0119339 0.138271 0)
(-0.0267396 0.185536 0)
(-0.0427492 0.209484 0)
(-0.0577898 0.217413 0)
(-0.0713151 0.214306 0)
(-0.083555 0.202858 0)
(-0.095099 0.184017 0)
(-0.106685 0.157574 0)
(-0.119038 0.122651 0)
(-0.132715 0.0780755 0)
(-0.147888 0.022714 0)
(-0.164017 -0.0440655 0)
(-0.179382 -0.121614 0)
(-0.190464 -0.206489 0)
(-0.191358 -0.289855 0)
(-0.174126 -0.353719 0)
(-0.132328 -0.367899 0)
(-0.070397 -0.295456 0)
(-0.00938325 -0.121333 0)
(-0.00183585 0.0657966 0)
(-0.0133431 0.151055 0)
(-0.0268213 0.19989 0)
(-0.0391756 0.222827 0)
(-0.0485538 0.228836 0)
(-0.0550315 0.223904 0)
(-0.059435 0.211261 0)
(-0.0628603 0.192111 0)
(-0.0665061 0.166334 0)
(-0.0715816 0.13301 0)
(-0.0792129 0.0907536 0)
(-0.0902996 0.0379754 0)
(-0.105252 -0.0268313 0)
(-0.123523 -0.104535 0)
(-0.142783 -0.194071 0)
(-0.157678 -0.289628 0)
(-0.158844 -0.375282 0)
(-0.135032 -0.4174 0)
(-0.0824987 -0.362117 0)
(-0.0135194 -0.162561 0)
(-0.00307312 0.0740683 0)
(-0.0177145 0.164235 0)
(-0.0304121 0.211766 0)
(-0.0382886 0.230954 0)
(-0.0402998 0.233065 0)
(-0.0376507 0.225099 0)
(-0.0320461 0.210669 0)
(-0.0251867 0.191114 0)
(-0.0187184 0.166362 0)
(-0.0142509 0.135481 0)
(-0.0133635 0.0970049 0)
(-0.0175642 0.0491094 0)
(-0.0281545 -0.0102679 0)
(-0.0458994 -0.0831955 0)
(-0.070264 -0.170986 0)
(-0.0977752 -0.271885 0)
(-0.119569 -0.375067 0)
(-0.121022 -0.448501 0)
(-0.0889677 -0.424351 0)
(-0.0184961 -0.211747 0)
(-0.00556951 0.0865855 0)
(-0.0270538 0.179646 0)
(-0.0392498 0.22099 0)
(-0.0407609 0.232317 0)
(-0.0325919 0.227947 0)
(-0.0179293 0.21559 0)
(0.000316054 0.198825 0)
(0.0197796 0.178849 0)
(0.0384337 0.15549 0)
(0.0543979 0.127785 0)
(0.0658091 0.0942796 0)
(0.0707485 0.0531367 0)
(0.0672338 0.00214021 0)
(0.0533438 -0.0613783 0)
(0.0276805 -0.140467 0)
(-0.00914181 -0.237492 0)
(-0.0510694 -0.349168 0)
(-0.0830254 -0.451596 0)
(-0.0833842 -0.471165 0)
(-0.023111 -0.266758 0)
(-0.00989144 0.108708 0)
(-0.0429222 0.199621 0)
(-0.0520712 0.225836 0)
(-0.0415209 0.223419 0)
(-0.0174861 0.209726 0)
(0.0137565 0.191973 0)
(0.0480253 0.172853 0)
(0.0824853 0.152933 0)
(0.11497 0.131707 0)
(0.143578 0.108113 0)
(0.166407 0.0807681 0)
(0.181384 0.0480114 0)
(0.186139 0.00783925 0)
(0.177973 -0.0423492 0)
(0.15394 -0.106238 0)
(0.111667 -0.189129 0)
(0.0524587 -0.296005 0)
(-0.012417 -0.41775 0)
(-0.0567007 -0.488968 0)
(-0.024649 -0.324058 0)
(-0.0178131 0.15166 0)
(-0.0612758 0.223636 0)
(-0.052196 0.217703 0)
(-0.0142136 0.19502 0)
(0.0356432 0.171171 0)
(0.0889185 0.149198 0)
(0.14162 0.129496 0)
(0.191456 0.111476 0)
(0.236827 0.0941002 0)
(0.276331 0.0761908 0)
(0.308437 0.0565174 0)
(0.331278 0.03376 0)
(0.342476 0.00640492 0)
(0.339041 -0.0275293 0)
(0.317169 -0.0712028 0)
(0.27228 -0.130555 0)
(0.20018 -0.2165 0)
(0.103031 -0.338357 0)
(0.00438566 -0.45679 0)
(-0.0159565 -0.369332 0)
(-0.024227 0.208258 0)
(-0.0379201 0.230349 0)
(0.0372776 0.176539 0)
(0.125088 0.136882 0)
(0.205902 0.109104 0)
(0.278131 0.0882683 0)
(0.342433 0.0721726 0)
(0.399087 0.0592286 0)
(0.448137 0.0480564 0)
(0.48935 0.0375251 0)
(0.522047 0.0266977 0)
(0.544999 0.0147285 0)
(0.556324 0.000746228 0)
(0.553375 -0.0163201 0)
(0.532342 -0.0383097 0)
(0.487764 -0.0691641 0)
(0.411155 -0.119104 0)
(0.290897 -0.20935 0)
(0.13314 -0.338288 0)
(0.0387787 -0.340367 0)
(0.241884 0.10913 0)
(0.313447 0.0971132 0)
(0.444309 0.0569656 0)
(0.549624 0.0351081 0)
(0.624072 0.0237397 0)
(0.679638 0.0167103 0)
(0.723539 0.01198 0)
(0.758866 0.00869301 0)
(0.787166 0.00625274 0)
(0.809235 0.00422854 0)
(0.825252 0.00232636 0)
(0.834848 0.000338245 0)
(0.837163 -0.00191199 0)
(0.83078 -0.00459284 0)
(0.8134 -0.00802969 0)
(0.781132 -0.0128842 0)
(0.725687 -0.0212272 0)
(0.62986 -0.0380904 0)
(0.459268 -0.0855476 0)
(0.304894 -0.125697 0)
)
;

boundaryField
{
    movingWall
    {
        type            fixedValue;
        value           uniform (1 0 0);
    }
    fixedWalls
    {
        type            fixedValue;
        value           uniform (0 0 0);
    }
    frontAndBack
    {
        type            empty;
    }
}


// ************************************************************************* //
