/*--------------------------------*- C++ -*----------------------------------*\
  =========                 |
  \\      /  F ield         | OpenFOAM: The Open Source CFD Toolbox
   \\    /   O peration     | Website:  https://openfoam.org
    \\  /    A nd           | Version:  13
     \\/     M anipulation  |
\*---------------------------------------------------------------------------*/
FoamFile
{
    format      ascii;
    class       volScalarField;
    location    "9";
    object      p;
}
// * * * * * * * * * * * * * * * * * * * * * * * * * * * * * * * * * * * * * //

dimensions      [0 2 -2 0 0 0 0];

internalField   nonuniform List<scalar> 
400
(
-1.74181e-09
-0.000362873
-0.000755559
-0.000983218
-0.000960861
-0.000660232
-7.80361e-05
0.000774118
0.00186973
0.00316272
0.00458194
0.00602885
0.00738184
0.00850982
0.009295
0.00966182
0.00960526
0.00921112
0.00866618
0.00824
0.0003635
-1.00476e-05
-0.000341287
-0.000506599
-0.000452082
-0.000161361
0.000368105
0.00112916
0.00210208
0.00324928
0.00451011
0.00579893
0.00700906
0.00802501
0.00874293
0.00909585
0.00907693
0.00875377
0.00827493
0.0078363
0.000771536
0.000294161
-5.94622e-05
-0.000213928
-0.000156201
0.000111443
0.000588065
0.00127115
0.00214963
0.00319626
0.00436091
0.00556701
0.00671419
0.0076893
0.00838634
0.00873186
0.00870792
0.00836459
0.00782396
0.00725219
0.00100696
0.000393387
-3.07371e-05
-0.000214593
-0.000178601
5.57846e-05
0.000483217
0.00110616
0.00192361
0.00292018
0.0040564
0.0052621
0.00643634
0.00745672
0.00819981
0.00856947
0.0085248
0.00809806
0.00740775
0.00663324
0.000926522
0.000168895
-0.000345026
-0.000581037
-0.000585214
-0.00039468
-1.71432e-05
0.000556764
0.00133829
0.00232614
0.00349302
0.00477463
0.00606547
0.00722504
0.00809852
0.00855013
0.00850129
0.00796262
0.00706637
0.0060306
0.000421676
-0.000477965
-0.00108852
-0.00138928
-0.00144821
-0.0013149
-0.000996585
-0.000474043
0.000279723
0.00128181
0.00252178
0.00394491
0.00544193
0.00684903
0.0079667
0.00859853
0.00860481
0.0079593
0.00681444
0.00544869
-0.000603378
-0.0016405
-0.00235135
-0.00272691
-0.00285702
-0.00280225
-0.00256699
-0.00211882
-0.00141017
-0.000398607
0.000931396
0.00254497
0.00433683
0.00612072
0.00764069
0.00861263
0.00879747
0.00809666
0.00667276
0.00488814
-0.00223949
-0.00340955
-0.00422495
-0.00468713
-0.00491132
-0.00496977
-0.00486276
-0.00454166
-0.00393263
-0.00295823
-0.00156237
0.000257917
0.00242074
0.00472928
0.00686573
0.0084264
0.00901447
0.00839123
0.00668923
0.00437941
-0.00457578
-0.00587355
-0.00679831
-0.00736124
-0.00771024
-0.00793256
-0.00802496
-0.00792073
-0.0075143
-0.00668185
-0.00530714
-0.00332148
-0.000749254
0.00223301
0.00525634
0.00776875
0.00913628
0.00886494
0.00696238
0.00402349
-0.00770119
-0.00911801
-0.0101535
-0.0108287
-0.0113363
-0.0117852
-0.0121717
-0.0124113
-0.0123631
-0.0118462
-0.0106623
-0.00863801
-0.00569281
-0.00192436
0.00228852
0.00623804
0.0089638
0.00954395
0.00767471
0.0040535
-0.0117073
-0.0132256
-0.0143599
-0.015143
-0.0158316
-0.016567
-0.017351
-0.0180844
-0.0185905
-0.0186239
-0.0178835
-0.0160514
-0.0128831
-0.00830743
-0.00262817
0.00333315
0.00822287
0.010471
0.00914582
0.00493602
-0.016698
-0.0182806
-0.0194685
-0.020313
-0.0211657
-0.0222164
-0.023479
-0.0248449
-0.0261047
-0.0269467
-0.0269554
-0.025642
-0.0225159
-0.0172524
-0.00994177
-0.00139597
0.00665084
0.011764
0.0119237
0.00754071
-0.0228179
-0.0243835
-0.0255076
-0.0262801
-0.0271978
-0.0285181
-0.030273
-0.0323468
-0.0345011
-0.0363616
-0.0373982
-0.0369323
-0.0341973
-0.0285108
-0.0195895
-0.00802275
0.00423467
0.0137768
0.016948
0.0134123
-0.0303229
-0.0316879
-0.032483
-0.0328921
-0.033636
-0.0350579
-0.0372028
-0.0399408
-0.0430021
-0.0459531
-0.0481573
-0.0487546
-0.0466988
-0.040897
-0.0305522
-0.0157623
0.00164191
0.0174304
0.0258365
0.0251612
-0.0397423
-0.040476
-0.0403825
-0.0398717
-0.0400025
-0.0411992
-0.043487
-0.0466952
-0.0505042
-0.054414
-0.0576887
-0.0593074
-0.0579674
-0.0521807
-0.0405748
-0.0225178
0.000764087
0.0247253
0.0413297
0.046894
-0.0521768
-0.0512926
-0.0491706
-0.046767
-0.0455995
-0.0460888
-0.0481503
-0.0515115
-0.0557606
-0.0603028
-0.0642922
-0.0665596
-0.0655818
-0.0595143
-0.0464418
-0.0248829
0.00501838
0.0392461
0.0678376
0.0844349
-0.069847
-0.0651626
-0.0586792
-0.0527903
-0.0494148
-0.0486498
-0.0501052
-0.0533
-0.0576575
-0.0624372
-0.0666547
-0.068982
-0.067675
-0.0605578
-0.0452087
-0.0192659
0.0185865
0.0659589
0.111928
0.145904
-0.0994193
-0.0841034
-0.0679756
-0.0562114
-0.0497508
-0.0474269
-0.0481738
-0.0511383
-0.0554936
-0.0602991
-0.0644269
-0.0663683
-0.064126
-0.0551665
-0.0364849
-0.00474898
0.0433041
0.108566
0.182255
0.248599
-0.171518
-0.111437
-0.0731429
-0.0531219
-0.0438768
-0.0407169
-0.0414623
-0.0447792
-0.0495435
-0.0546079
-0.0587618
-0.0604503
-0.0574174
-0.046777
-0.024881
0.012937
0.0729666
0.162642
0.285503
0.437189
-0.351335
-0.151092
-0.0684491
-0.0424561
-0.0327521
-0.0298703
-0.0314042
-0.0357421
-0.0415135
-0.0474573
-0.0522424
-0.0542441
-0.051229
-0.0402213
-0.0169931
0.0248385
0.0959864
0.216837
0.417771
0.722826
)
;

boundaryField
{
    movingWall
    {
        type            zeroGradient;
    }
    fixedWalls
    {
        type            zeroGradient;
    }
    frontAndBack
    {
        type            empty;
    }
}


// ************************************************************************* //
