/*--------------------------------*- C++ -*----------------------------------*\
  =========                 |
  \\      /  F ield         | OpenFOAM: The Open Source CFD Toolbox
   \\    /   O peration     | Website:  https://openfoam.org
    \\  /    A nd           | Version:  13
     \\/     M anipulation  |
\*---------------------------------------------------------------------------*/
FoamFile
{
    format      ascii;
    class       surfaceScalarField;
    location    "9";
    object      phi;
}
// * * * * * * * * * * * * * * * * * * * * * * * * * * * * * * * * * * * * * //

dimensions      [0 3 -1 0 0 0 0];

internalField   nonuniform List<scalar> 
760
(
-9.72508e-07
9.7275e-07
-3.80522e-05
3.70795e-05
-0.000110242
7.21895e-05
-0.000205038
9.47957e-05
-0.000310216
0.000105178
-0.000415672
0.000105457
-0.000513068
9.73965e-05
-0.000595024
8.19563e-05
-0.000654616
5.95929e-05
-0.000685441
3.08246e-05
-0.000682276
-3.16478e-06
-0.000642248
-4.00284e-05
-0.000566229
-7.60185e-05
-0.000460082
-0.000106148
-0.000335233
-0.000124848
-0.000208071
-0.000127161
-9.77851e-05
-0.000110286
-2.24648e-05
-7.53209e-05
6.95167e-06
-2.94169e-05
6.9518e-06
-3.84532e-05
3.94258e-05
-0.000159861
0.000158486
-0.000353623
0.000265951
-0.000594277
0.00033545
-0.000856017
0.000366918
-0.00111591
0.000365347
-0.0013539
0.000335393
-0.00155196
0.000280017
-0.00169349
0.000201124
-0.00176376
0.000101096
-0.00175145
-1.54808e-05
-0.00165105
-0.000140427
-0.00146579
-0.000261274
-0.00121001
-0.000361927
-0.000910056
-0.000424804
-0.000602565
-0.000434652
-0.000329323
-0.000383528
-0.00012857
-0.000276073
-2.34896e-05
-0.000134496
-1.65384e-05
-8.12052e-05
0.000120631
-0.000291253
0.000368533
-0.000595871
0.000570569
-0.000958843
0.000698422
-0.00134568
0.00075376
-0.00172548
0.00074515
-0.00207073
0.00068064
-0.00235646
0.000565744
-0.00255985
0.000404521
-0.00266094
0.000202185
-0.00264452
-3.18994e-05
-0.00250321
-0.000281737
-0.00224098
-0.000523501
-0.00187635
-0.000726565
-0.0014438
-0.000857355
-0.000992085
-0.000886363
-0.000578007
-0.000797607
-0.000255484
-0.000598598
-6.17506e-05
-0.000328226
-7.82897e-05
-0.000119468
0.000240098
-0.000411772
0.000660837
-0.000818418
0.000977216
-0.00129077
0.00117078
-0.00178679
0.00124978
-0.00227007
0.00122843
-0.00270842
0.00111899
-0.00307247
0.000929801
-0.00333508
0.000667127
-0.00347191
0.000339018
-0.00346358
-4.02306e-05
-0.00329907
-0.000446251
-0.00298008
-0.000842491
-0.00252545
-0.00118119
-0.00197415
-0.00140866
-0.00138477
-0.00147574
-0.000829458
-0.00135292
-0.00038124
-0.00104682
-9.73961e-05
-0.00061207
-0.000175686
-0.000153315
0.000393414
-0.000520978
0.0010285
-0.0010222
0.00147844
-0.00159595
0.00174453
-0.00219323
0.00184706
-0.00277364
0.00180883
-0.00330215
0.0016475
-0.00374668
0.00137433
-0.00407672
0.000997166
-0.00426356
0.000525859
-0.00428223
-2.15524e-05
-0.0041153
-0.000613181
-0.00375824
-0.00119955
-0.00322584
-0.00171359
-0.00255804
-0.00207646
-0.00182236
-0.00221141
-0.00110939
-0.0020659
-0.000518247
-0.00163796
-0.000134125
-0.000996195
-0.000309812
-0.000184161
0.000577574
-0.000621711
0.00146605
-0.00121175
0.00206848
-0.00188171
0.00241448
-0.00257654
0.00254189
-0.00325309
0.00248539
-0.00387504
0.00226945
-0.00440889
0.00190817
-0.00482149
0.00140977
-0.00507943
0.000783808
-0.00515051
4.95252e-05
-0.0050076
-0.000756091
-0.00463523
-0.00157192
-0.00403862
-0.00231021
-0.00325372
-0.00286136
-0.00235501
-0.00311012
-0.00145482
-0.00296609
-0.000687758
-0.00240502
-0.00017901
-0.00150495
-0.000488823
-0.000213296
0.000790871
-0.000716658
0.00196941
-0.00139088
0.0027427
-0.00215285
0.00317645
-0.00294256
0.0033316
-0.00371555
0.00325837
-0.00443572
0.00298963
-0.00506959
0.00254205
-0.00558235
0.00192253
-0.00593599
0.00113744
-0.00608983
0.000203364
-0.00600413
-0.000841786
-0.00564749
-0.00192856
-0.00500859
-0.00294911
-0.00411182
-0.00375812
-0.00303307
-0.00418887
-0.0019073
-0.00409186
-0.000915297
-0.00339703
-0.000240626
-0.00217962
-0.00072945
-0.000241556
0.00103243
-0.000807284
0.00253514
-0.00156092
0.00349633
-0.0024095
0.00402503
-0.00328926
0.00421135
-0.00415593
0.00412505
-0.00497545
0.00380914
-0.00571617
0.00328277
-0.00634327
0.00254963
-0.00681531
0.00160948
-0.00708333
0.000471385
-0.0070934
-0.000831717
-0.00679394
-0.00222802
-0.00614944
-0.00359361
-0.00516184
-0.00474572
-0.00389712
-0.00545359
-0.00250754
-0.00548143
-0.00122896
-0.00467561
-0.00032891
-0.00307967
-0.00105836
-0.000269451
0.00130188
-0.000893917
0.00315961
-0.00172055
0.00432296
-0.00264671
0.00495118
-0.00360585
0.0051705
-0.0045556
0.00507479
-0.00546591
0.00471945
-0.00630936
0.00412622
-0.00705377
0.00329404
-0.00765707
0.00221278
-0.00806449
0.000878805
-0.00820902
-0.000687182
-0.00801735
-0.00241969
-0.00742303
-0.00418793
-0.00639234
-0.00577641
-0.00496281
-0.00688312
-0.00328744
-0.00715681
-0.00165764
-0.0063054
-0.000455544
-0.00428178
-0.00151391
-0.000297642
0.00159952
-0.000976697
0.00383866
-0.00186695
0.00521322
-0.00285539
0.00593962
-0.00387359
0.00618869
-0.00488271
0.00608392
-0.00585903
0.00569577
-0.00678219
0.00504938
-0.00762636
0.00413821
-0.00835354
0.00293996
-0.00890867
0.00143393
-0.00921659
-0.000379258
-0.00918583
-0.00245045
-0.00871606
-0.00465769
-0.00772543
-0.00676704
-0.00619811
-0.00841044
-0.00425574
-0.00909918
-0.0022267
-0.00833445
-0.000634285
-0.00587419
-0.00214819
-0.000327817
0.00192734
-0.00105748
0.00456833
-0.00199817
0.0061539
-0.00302491
0.00696636
-0.00406828
0.00723206
-0.00509496
0.0071106
-0.00609001
0.00669083
-0.00704336
0.00600273
-0.00794003
0.00503487
-0.0087525
0.00375244
-0.00943414
0.00211558
-0.00991032
9.69181e-05
-0.010083
-0.00227773
-0.00982181
-0.00491893
-0.00899049
-0.00759836
-0.00749402
-0.0099069
-0.00537482
-0.0112184
-0.00294798
-0.0107613
-0.000880615
-0.00794155
-0.00302881
-0.000364251
0.00229159
-0.00114294
0.00534701
-0.00211683
0.0071278
-0.00314684
0.00799636
-0.00416433
0.00824954
-0.0051444
0.00809067
-0.00608385
0.00763028
-0.00698629
0.00690516
-0.00785231
0.00590089
-0.00867181
0.00457194
-0.009416
0.00285977
-0.0100307
0.000711603
-0.010418
-0.00189045
-0.0104389
-0.00489803
-0.00990853
-0.00812869
-0.00863572
-0.0111797
-0.00652857
-0.0133255
-0.00380054
-0.0134893
-0.00120943
-0.0105327
-0.00423824
-0.000416467
0.00270805
-0.00124912
0.00617967
-0.00223474
0.00811342
-0.00321881
0.00898043
-0.00413843
0.00916916
-0.00498238
0.00893462
-0.00576328
0.00841118
-0.00650197
0.00764385
-0.00721882
0.00661774
-0.00792746
0.00528057
-0.00862749
0.0035598
-0.00929422
0.00137834
-0.00986042
-0.00132426
-0.010199
-0.00455939
-0.0101022
-0.00822553
-0.00928861
-0.0119933
-0.00748932
-0.0151248
-0.00469985
-0.0162788
-0.00162798
-0.0136045
-0.00586622
-0.000503843
0.0032119
-0.00140756
0.00708339
-0.00237651
0.00908236
-0.00324485
0.00984877
-0.00396791
0.00989223
-0.00455828
0.009525
-0.00505065
0.00890354
-0.00548672
0.00807992
-0.00590934
0.00704036
-0.00635905
0.00573028
-0.00686934
0.00407009
-0.00745718
0.00196618
-0.00810443
-0.000677006
-0.00872923
-0.00393459
-0.00914401
-0.00781075
-0.00901753
-0.0121198
-0.00790023
-0.0162421
-0.00545934
-0.0187197
-0.00211884
-0.016945
-0.00798506
-0.00066268
0.00387458
-0.00167063
0.00809134
-0.00257559
0.00998732
-0.00322136
0.0104945
-0.0036098
0.0102807
-0.00379569
0.00971089
-0.00384498
0.00895283
-0.0038238
0.00805874
-0.00379774
0.0070143
-0.00383281
0.00576535
-0.00399518
0.00423246
-0.00434595
0.00231694
-0.00492665
-9.63038e-05
-0.00572822
-0.00313302
-0.00663688
-0.0069021
-0.00734789
-0.0114088
-0.00729192
-0.0162981
-0.00575685
-0.0202548
-0.0026049
-0.020097
-0.01059
-0.00095013
0.00482471
-0.00210285
0.00924406
-0.002837
0.0107215
-0.00307383
0.0107314
-0.002921
0.0101278
-0.00250453
0.00929443
-0.00193224
0.00838054
-0.00129616
0.00742266
-0.000680784
0.00639893
-0.00017038
0.00525495
0.000145349
0.00391673
0.000171035
0.00229126
-0.000189338
0.000264069
-0.0010084
-0.00231395
-0.00228897
-0.00562153
-0.00384949
-0.00984828
-0.00513639
-0.0150112
-0.00512231
-0.0202688
-0.00288677
-0.0223325
-0.0134767
-0.00142499
0.0062497
-0.00270405
0.0105231
-0.00296876
0.0109862
-0.00243009
0.0101927
-0.00140988
0.00910762
-0.000133354
0.0080179
0.0012507
0.00699649
0.00263412
0.00603924
0.00392699
0.00510606
0.00504262
0.00413931
0.00588385
0.00307551
0.00633918
0.00183593
0.00628101
0.000322227
0.0055741
-0.00160704
0.00409473
-0.00414216
0.00182115
-0.0075747
-0.000900883
-0.0122891
-0.00296092
-0.0182088
-0.00258359
-0.0227098
-0.0160603
-0.00211789
0.00836759
-0.00299922
0.0114044
-0.00192612
0.00991309
7.18014e-05
0.00819478
0.00239219
0.00678723
0.00476725
0.00564285
0.00706127
0.00470247
0.00919134
0.00390917
0.0110958
0.00320157
0.0127139
0.00252124
0.0139608
0.00182864
0.0147338
0.00106289
0.014905
0.00015108
0.0143165
-0.00101853
0.0127713
-0.00259699
0.0100193
-0.00482271
0.00600992
-0.00827976
0.00147187
-0.0136708
-0.00124723
-0.0199907
-0.0173076
-0.00244555
0.0108131
4.73383e-05
0.00891155
0.00422778
0.00573265
0.00829264
0.00412993
0.0119555
0.00312441
0.0152043
0.00239396
0.018047
0.00185981
0.0204969
0.00145927
0.0225592
0.00113934
0.0242189
0.000861535
0.0254541
0.00059343
0.0262153
0.000301671
0.0264023
-3.59571e-05
0.0258471
-0.000463321
0.0242977
-0.00104752
0.0214135
-0.00193854
0.0166819
-0.00354819
0.00973187
-0.00672071
0.00210428
-0.0123631
-0.0152033
0.0108131
0.0197247
0.0254573
0.0295873
0.0327117
0.0351056
0.0369654
0.0384247
0.039564
0.0404256
0.041019
0.0413207
0.0412847
0.0408214
0.0397739
0.0378353
0.0342871
0.0275664
0.0152033
)
;

boundaryField
{
    movingWall
    {
        type            calculated;
        value           uniform 0;
    }
    fixedWalls
    {
        type            calculated;
        value           uniform 0;
    }
    frontAndBack
    {
        type            empty;
    }
}


// ************************************************************************* //
