/*--------------------------------*- C++ -*----------------------------------*\
  =========                 |
  \\      /  F ield         | OpenFOAM: The Open Source CFD Toolbox
   \\    /   O peration     | Website:  https://openfoam.org
    \\  /    A nd           | Version:  13
     \\/     M anipulation  |
\*---------------------------------------------------------------------------*/
FoamFile
{
    format      ascii;
    class       surfaceScalarField;
    location    "9";
    object      phi_0;
}
// * * * * * * * * * * * * * * * * * * * * * * * * * * * * * * * * * * * * * //

dimensions      [0 3 -1 0 0 0 0];

internalField   nonuniform List<scalar> 
760
(
-1.48288e-06
1.48303e-06
-3.83943e-05
3.69112e-05
-0.00010923
7.08356e-05
-0.000201567
9.23367e-05
-0.000303402
0.000101835
-0.00040491
0.000101509
-0.000498134
9.32239e-05
-0.000576198
7.80645e-05
-0.000632791
5.65934e-05
-0.000662148
2.93572e-05
-0.000659579
-2.56948e-06
-0.000622445
-3.71337e-05
-0.000551398
-7.10468e-05
-0.000451524
-9.98745e-05
-0.000332998
-0.000118525
-0.00021077
-0.000122227
-0.000102878
-0.000107892
-2.70778e-05
-7.58011e-05
4.75249e-06
-3.1831e-05
4.75297e-06
-3.81287e-05
3.96116e-05
-0.000156685
0.000155466
-0.000344834
0.000258984
-0.000577383
0.000324886
-0.000829104
0.000353557
-0.00107783
0.000350233
-0.00130451
0.000319912
-0.00149238
0.000265933
-0.00162628
0.00019049
-0.00169289
9.59718e-05
-0.00168199
-1.34698e-05
-0.00158851
-0.000130621
-0.00141509
-0.00024446
-0.00117441
-0.000340556
-0.000890191
-0.000402742
-0.000596083
-0.000416335
-0.000331368
-0.000372606
-0.000133301
-0.000273866
-2.64534e-05
-0.000138676
-2.17017e-05
-7.9141e-05
0.000118752
-0.000282496
0.000358821
-0.000576429
0.000552917
-0.000925349
0.000673807
-0.00129561
0.000723818
-0.00165742
0.000712044
-0.00198473
0.000647228
-0.00225442
0.000535622
-0.00244573
0.000381792
-0.00254066
0.000190906
-0.00252557
-2.85578e-05
-0.00239373
-0.000262463
-0.00214848
-0.000489709
-0.00180623
-0.000682809
-0.00139804
-0.000810928
-0.000968531
-0.000845844
-0.000570726
-0.000770413
-0.000256524
-0.000588071
-6.4052e-05
-0.000331142
-8.57547e-05
-0.000115287
0.000234039
-0.000396453
0.000639987
-0.000786765
0.00094323
-0.00123871
0.00112575
-0.00171134
0.00119645
-0.00216964
0.00117035
-0.00258322
0.0010608
-0.00292493
0.000877336
-0.00317015
0.000627015
-0.00329707
0.000317827
-0.00328837
-3.72641e-05
-0.00313415
-0.000416685
-0.00283582
-0.000788037
-0.00241016
-0.00110847
-0.00189225
-0.00132883
-0.00133553
-0.00140257
-0.000806788
-0.00129916
-0.000375339
-0.00101952
-9.80955e-05
-0.000608384
-0.00018385
-0.000146977
0.000381016
-0.000499091
0.000992102
-0.000978396
0.00142254
-0.00152548
0.00167283
-0.00209268
0.00176365
-0.00264108
0.00171874
-0.00313762
0.00155735
-0.00355272
0.00129243
-0.00385875
0.00093305
-0.00403005
0.000489129
-0.0040444
-2.29143e-05
-0.00388629
-0.000574797
-0.0035517
-0.00112262
-0.00305393
-0.00160624
-0.00242902
-0.00195374
-0.00173836
-0.00209322
-0.0010652
-0.00197231
-0.000502372
-0.00158235
-0.000132444
-0.000978316
-0.000316295
-0.00017596
0.000556977
-0.000594243
0.00141039
-0.00115765
0.00198594
-0.00179556
0.00231075
-0.00245433
0.00242241
-0.00309228
0.0023567
-0.00367506
0.00214012
-0.00417173
0.00178911
-0.00455234
0.00131366
-0.00478701
0.000723803
-0.00484709
3.71669e-05
-0.00470853
-0.000713359
-0.00435767
-0.00147348
-0.00379942
-0.00216449
-0.00306644
-0.00268672
-0.00222644
-0.00293322
-0.00138217
-0.00281658
-0.000658355
-0.00230617
-0.000174001
-0.00146267
-0.000490298
-0.00020391
0.000760888
-0.000685712
0.00189219
-0.00133033
0.00263056
-0.00205666
0.00303707
-0.00280597
0.00317173
-0.00353508
0.0030858
-0.00420966
0.0028147
-0.00479873
0.00237817
-0.00527074
0.00178567
-0.00559163
0.0010447
-0.00572514
0.000170669
-0.00563584
-0.000802651
-0.00529588
-0.00181345
-0.0046955
-0.00276487
-0.00385728
-0.00352493
-0.00285054
-0.00393997
-0.00179867
-0.00386845
-0.00086816
-0.00323668
-0.00023106
-0.00209977
-0.000721359
-0.000232053
0.000992941
-0.000776122
0.00243626
-0.00149988
0.00335431
-0.00231207
0.00384927
-0.00314986
0.00400951
-0.0039699
0.00390584
-0.00473954
0.00358434
-0.00542933
0.00306797
-0.00600759
0.00236393
-0.00643698
0.00147409
-0.00667351
0.000407207
-0.00666879
-0.000807378
-0.00637654
-0.00210569
-0.00576525
-0.00337616
-0.00483756
-0.00445262
-0.00365459
-0.00512294
-0.00235626
-0.00516678
-0.00115958
-0.00443336
-0.000313275
-0.00294608
-0.00103463
-0.000261266
0.00125421
-0.000866866
0.00304186
-0.00166694
0.00415438
-0.00255984
0.00474216
-0.00347946
0.00492913
-0.00438386
0.00481024
-0.00524392
0.0044444
-0.00603389
0.00385795
-0.00672426
0.00305431
-0.00727679
0.00202661
-0.00764177
0.000772182
-0.00775835
-0.000690793
-0.00755991
-0.00230413
-0.00698645
-0.00394962
-0.00600847
-0.0054306
-0.00466226
-0.00646915
-0.0030903
-0.00673874
-0.00156212
-0.00596154
-0.000432154
-0.00407606
-0.00146679
-0.000292484
0.00154669
-0.000958842
0.00370822
-0.00183008
0.00502562
-0.00279316
0.00570523
-0.00377944
0.00591541
-0.00475006
0.00578085
-0.00568158
0.00537592
-0.0065546
0.00473097
-0.00734513
0.00384484
-0.00801817
0.00269965
-0.00852298
0.001277
-0.00879046
-0.000423307
-0.00873592
-0.00235868
-0.00826749
-0.00441805
-0.0073112
-0.00638689
-0.00585556
-0.00792479
-0.00401718
-0.00857712
-0.00210344
-0.00787529
-0.000601535
-0.00557796
-0.00206833
-0.000327478
0.00187417
-0.00105403
0.00443477
-0.00198766
0.00595925
-0.00300207
0.00671964
-0.004027
0.00694034
-0.00502858
0.00678243
-0.00599151
0.00633886
-0.00690579
0.00564525
-0.00775714
0.00469619
-0.00851965
0.00346216
-0.0091493
0.00190664
-0.009577
4.39507e-06
-0.00970901
-0.00222667
-0.00942464
-0.00470242
-0.00859822
-0.00721331
-0.0071452
-0.0093778
-0.00511215
-0.0106102
-0.00280053
-0.0101869
-0.000837521
-0.00754097
-0.00290585
-0.000370248
0.00224442
-0.00115817
0.00522269
-0.00214073
0.00694182
-0.00317608
0.00775499
-0.00419414
0.0079584
-0.00516893
0.00775722
-0.00609623
0.00726616
-0.00697875
0.00652777
-0.00781652
0.00553396
-0.00859942
0.00424506
-0.00929962
0.00260684
-0.00986315
0.000567925
-0.0101987
-0.00189116
-0.0101724
-0.00472869
-0.0096108
-0.0077749
-0.00833796
-0.0106506
-0.00627686
-0.0126713
-0.00364173
-0.012822
-0.00115671
-0.010026
-0.00406256
-0.000429486
0.0026739
-0.00128482
0.00607803
-0.00229679
0.00795378
-0.0033067
0.00876489
-0.00424955
0.00890125
-0.00511245
0.00862012
-0.00590633
0.00806003
-0.00665021
0.00727165
-0.00736272
0.00624647
-0.00805589
0.00493823
-0.00872794
0.00327889
-0.00935339
0.00119338
-0.00986543
-0.00137912
-0.0101403
-0.00445383
-0.00997831
-0.0079369
-0.00911407
-0.0115149
-0.00730174
-0.0144836
-0.00455574
-0.015568
-0.00156992
-0.0130118
-0.00563248
-0.000522964
0.00319687
-0.00146108
0.00701614
-0.00247274
0.00896545
-0.00338676
0.00967892
-0.00415553
0.00967002
-0.00478929
0.00925388
-0.00532037
0.00859111
-0.00578806
0.00773933
-0.00623268
0.00669109
-0.0066922
0.00539775
-0.00719734
0.00378402
-0.00776222
0.00175826
-0.00836581
-0.000775527
-0.00892484
-0.00389479
-0.00925429
-0.00760745
-0.00903392
-0.0117352
-0.00783854
-0.015679
-0.00536922
-0.0180374
-0.00206555
-0.0163155
-0.00769803
-0.000684503
0.00388137
-0.00173286
0.00806449
-0.00269098
0.00992356
-0.00339644
0.0103844
-0.00384724
0.0101208
-0.00409519
0.00950183
-0.00420352
0.00869944
-0.00423576
0.00777157
-0.00425478
0.00671011
-0.00432371
0.00546668
-0.0045054
0.00396572
-0.00485701
0.00210987
-0.00541561
-0.000216923
-0.00616641
-0.003144
-0.00699182
-0.00678204
-0.00758878
-0.0111383
-0.00740425
-0.0158635
-0.00576408
-0.0196775
-0.00257315
-0.0195064
-0.0102712
-0.000968428
0.0048498
-0.00215779
0.00925386
-0.00294425
0.01071
-0.00324293
0.0106831
-0.00315703
0.0100349
-0.00280962
0.00915442
-0.00230607
0.00819589
-0.00173615
0.00720165
-0.00118168
0.00615564
-0.000723865
0.00500887
-0.000448783
0.00369064
-0.000447668
0.00210875
-0.000813179
0.000148586
-0.00160808
-0.0023491
-0.002829
-0.00556111
-0.00428662
-0.00968067
-0.00542832
-0.0147218
-0.00525419
-0.0198517
-0.00289582
-0.0218648
-0.013167
-0.00143165
0.00628145
-0.00273295
0.0105552
-0.00303466
0.0110117
-0.00254376
0.0101922
-0.00157892
0.00907009
-0.000363917
0.00793942
0.000953808
0.00687817
0.00226814
0.00588732
0.00349155
0.00493223
0.00454141
0.00395901
0.00532489
0.00290717
0.00573543
0.00169822
0.00564935
0.00023466
0.00493959
-0.00163934
0.00348778
-0.0041093
0.00128338
-0.00747627
-0.00131662
-0.0121218
-0.00320417
-0.0179641
-0.00264012
-0.0224288
-0.0158071
-0.00210634
0.00838779
-0.00299474
0.0114436
-0.00193074
0.00994774
4.81772e-05
0.00821324
0.00233836
0.0067799
0.00467118
0.0056066
0.0069111
0.00463824
0.0089766
0.00382182
0.0108087
0.0031001
0.0123546
0.00241314
0.0135336
0.0017282
0.0142477
0.000984077
0.0143765
0.000105834
0.0137678
-0.00103055
0.0122257
-0.00256727
0.00950577
-0.00475632
0.00557685
-0.00819289
0.00118605
-0.0135733
-0.00133471
-0.0199081
-0.0171418
-0.00243936
0.0108271
6.47019e-05
0.00893949
0.00427143
0.00574101
0.00834781
0.00413686
0.012007
0.00312069
0.015236
0.00237759
0.0180421
0.00183221
0.0204405
0.00142343
0.0224411
0.00109942
0.0240315
0.000822816
0.0251965
0.00056313
0.0258972
0.000283435
0.0260412
-3.81958e-05
0.025458
-0.000447358
0.0239013
-0.00101057
0.021028
-0.00188297
0.016329
-0.00349395
0.00945589
-0.00670016
0.00195979
-0.012412
-0.015182
0.0108271
0.0197666
0.0255076
0.0296445
0.0327652
0.0351428
0.036975
0.0383984
0.0394978
0.0403207
0.0408838
0.0411672
0.041129
0.0406817
0.0396711
0.0377881
0.0342942
0.027594
0.015182
)
;

boundaryField
{
    movingWall
    {
        type            calculated;
        value           uniform 0;
    }
    fixedWalls
    {
        type            calculated;
        value           uniform 0;
    }
    frontAndBack
    {
        type            empty;
    }
}


// ************************************************************************* //
