/*--------------------------------*- C++ -*----------------------------------*\
  =========                 |
  \\      /  F ield         | OpenFOAM: The Open Source CFD Toolbox
   \\    /   O peration     | Website:  https://openfoam.org
    \\  /    A nd           | Version:  13
     \\/     M anipulation  |
\*---------------------------------------------------------------------------*/
FoamFile
{
    format      ascii;
    class       volVectorField;
    location    "9";
    object      U;
}
// * * * * * * * * * * * * * * * * * * * * * * * * * * * * * * * * * * * * * //

dimensions      [0 1 -1 0 0 0 0];

internalField   nonuniform List<vector> 
400
(
(9.2341e-05 -9.40677e-05 0)
(-0.000248224 8.26747e-05 0)
(-0.00137061 0.000258712 0)
(-0.00308899 0.000372355 0)
(-0.00513686 0.000429654 0)
(-0.00728365 0.000443324 0)
(-0.00934618 0.000421652 0)
(-0.0111695 0.000367366 0)
(-0.0126115 0.000280023 0)
(-0.0135377 0.000159612 0)
(-0.0138288 1.02176e-05 0)
(-0.0133998 -0.000157166 0)
(-0.0122263 -0.000323285 0)
(-0.0103723 -0.000461629 0)
(-0.00801008 -0.000542442 0)
(-0.00542134 -0.000539684 0)
(-0.00297197 -0.000439707 0)
(-0.00105439 -0.000249951 0)
(1.72467e-05 -1.05848e-05 0)
(0.000164312 0.000160891 0)
(-8.80847e-05 0.000243761 0)
(-0.00163786 0.00157931 0)
(-0.00486974 0.00288621 0)
(-0.00933549 0.00374313 0)
(-0.0144781 0.00414187 0)
(-0.0197975 0.00415098 0)
(-0.0248649 0.00383258 0)
(-0.0293031 0.0032229 0)
(-0.0327665 0.00234151 0)
(-0.0349384 0.00121145 0)
(-0.0355516 -0.000118353 0)
(-0.0344288 -0.00155475 0)
(-0.0315379 -0.0029517 0)
(-0.0270475 -0.00411695 0)
(-0.0213627 -0.00483815 0)
(-0.0151213 -0.00492882 0)
(-0.00913042 -0.0042886 0)
(-0.00423227 -0.00297034 0)
(-0.00110314 -0.00125712 0)
(4.24161e-05 5.56261e-05 0)
(-0.000297064 0.00144125 0)
(-0.00323858 0.00489739 0)
(-0.00850318 0.00787423 0)
(-0.0153552 0.00980004 0)
(-0.0230218 0.0106652 0)
(-0.030836 0.010594 0)
(-0.0382155 0.00970868 0)
(-0.0446394 0.0080913 0)
(-0.0496293 0.00579993 0)
(-0.0527522 0.00290856 0)
(-0.0536466 -0.000446834 0)
(-0.0520747 -0.00403041 0)
(-0.0479899 -0.0074901 0)
(-0.0416071 -0.0103742 0)
(-0.0334535 -0.0121917 0)
(-0.0243712 -0.0125173 0)
(-0.0154467 -0.0111312 0)
(-0.00784377 -0.00816549 0)
(-0.00256942 -0.00423317 0)
(-0.000123909 -0.000795972 0)
(-0.000478787 0.00346182 0)
(-0.00469971 0.00995066 0)
(-0.0118584 0.0150269 0)
(-0.0208744 0.0182013 0)
(-0.030765 0.0195446 0)
(-0.0407365 0.0192698 0)
(-0.0501086 0.0175739 0)
(-0.0582714 0.0145943 0)
(-0.0646596 0.0104362 0)
(-0.0687522 0.00523514 0)
(-0.0701014 -0.000769977 0)
(-0.0683888 -0.00717562 0)
(-0.063505 -0.0133841 0)
(-0.0556406 -0.0186261 0)
(-0.0453644 -0.0220536 0)
(-0.0336577 -0.0229131 0)
(-0.0218611 -0.0207843 0)
(-0.0114978 -0.0158321 0)
(-0.00398818 -0.00899427 0)
(-0.000267958 -0.00238742 0)
(-0.000634695 0.00620184 0)
(-0.00600682 0.0165723 0)
(-0.0149199 0.0241334 0)
(-0.0259441 0.0286904 0)
(-0.0378941 0.0305003 0)
(-0.0498714 0.0299164 0)
(-0.0611339 0.0272313 0)
(-0.0710205 0.0226414 0)
(-0.0789071 0.0162935 0)
(-0.0841963 0.00837477 0)
(-0.0863403 -0.000782297 0)
(-0.0848982 -0.0106083 0)
(-0.0796289 -0.0202436 0)
(-0.0706107 -0.0285529 0)
(-0.0583696 -0.0342413 0)
(-0.0439743 -0.036098 0)
(-0.0290378 -0.0333596 0)
(-0.0155479 -0.026117 0)
(-0.00549174 -0.0156081 0)
(-0.000409246 -0.0046834 0)
(-0.000771499 0.00958138 0)
(-0.00720215 0.0246309 0)
(-0.0177549 0.0350565 0)
(-0.0306759 0.0411356 0)
(-0.0445915 0.0434203 0)
(-0.0585209 0.0424681 0)
(-0.0716898 0.0386936 0)
(-0.0834164 0.0323522 0)
(-0.0930402 0.0236134 0)
(-0.0998926 0.0126852 0)
(-0.103307 -4.32384e-05 0)
(-0.10267 -0.0138679 0)
(-0.0975275 -0.0276751 0)
(-0.0877407 -0.0399253 0)
(-0.0736806 -0.0487679 0)
(-0.0564242 -0.0523472 0)
(-0.0378614 -0.0493215 0)
(-0.0205749 -0.039509 0)
(-0.00734791 -0.0243993 0)
(-0.000583208 -0.00776409 0)
(-0.000894083 0.0135544 0)
(-0.00832783 0.0340341 0)
(-0.020428 0.0476983 0)
(-0.035155 0.0554529 0)
(-0.0509627 0.0582553 0)
(-0.0668141 0.0569361 0)
(-0.0819341 0.0520614 0)
(-0.0956512 0.0439419 0)
(-0.107294 0.0327398 0)
(-0.116135 0.0186332 0)
(-0.121377 0.00200415 0)
(-0.122196 -0.0163729 0)
(-0.117845 -0.0351724 0)
(-0.107846 -0.0524355 0)
(-0.0922641 -0.0656422 0)
(-0.0720417 -0.0720489 0)
(-0.0492812 -0.069381 0)
(-0.0272674 -0.0568346 0)
(-0.0098906 -0.0360155 0)
(-0.000832203 -0.0118726 0)
(-0.00100468 0.0180975 0)
(-0.0094108 0.0447132 0)
(-0.0229708 0.0619745 0)
(-0.0394007 0.0715605 0)
(-0.0569933 0.0749488 0)
(-0.0746843 0.0733183 0)
(-0.0917323 0.0674194 0)
(-0.107514 0.0576126 0)
(-0.121383 0.0440157 0)
(-0.13258 0.0267113 0)
(-0.140195 0.00598608 0)
(-0.143179 -0.017415 0)
(-0.140437 -0.0420423 0)
(-0.131036 -0.065554 0)
(-0.114549 -0.0846795 0)
(-0.0915483 -0.0955167 0)
(-0.0641534 -0.0943717 0)
(-0.0363546 -0.0792325 0)
(-0.0135105 -0.0514645 0)
(-0.00120739 -0.0174382 0)
(-0.00110458 0.0231998 0)
(-0.0104662 0.0566044 0)
(-0.0253816 0.077784 0)
(-0.0433598 0.0893296 0)
(-0.0625354 0.0933668 0)
(-0.0818463 0.0915077 0)
(-0.100624 0.0847251 0)
(-0.118336 0.0734273 0)
(-0.134412 0.0576503 0)
(-0.148118 0.0373105 0)
(-0.158481 0.0124957 0)
(-0.164266 -0.0162119 0)
(-0.164033 -0.0473822 0)
(-0.156318 -0.078411 0)
(-0.140009 -0.105286 0)
(-0.114986 -0.122721 0)
(-0.0829998 -0.125016 0)
(-0.0485172 -0.108041 0)
(-0.0186612 -0.0721244 0)
(-0.0017751 -0.0251069 0)
(-0.00119807 0.0288604 0)
(-0.0115131 0.0696351 0)
(-0.0276465 0.0949794 0)
(-0.0469276 0.108534 0)
(-0.0673249 0.113224 0)
(-0.0878083 0.111193 0)
(-0.107822 0.103685 0)
(-0.126979 0.0911624 0)
(-0.144844 0.0735525 0)
(-0.160793 0.0505448 0)
(-0.173896 0.0219259 0)
(-0.182837 -0.0120389 0)
(-0.185922 -0.0501333 0)
(-0.181175 -0.0897269 0)
(-0.166662 -0.126235 0)
(-0.141213 -0.152924 0)
(-0.105616 -0.161524 0)
(-0.0642033 -0.144531 0)
(-0.0258505 -0.0996958 0)
(-0.00262687 -0.0357826 0)
(-0.00129971 0.0350984 0)
(-0.0126051 0.0837255 0)
(-0.0297842 0.113345 0)
(-0.0499979 0.128801 0)
(-0.0710318 0.134007 0)
(-0.0919226 0.131758 0)
(-0.112274 0.123626 0)
(-0.131895 0.110151 0)
(-0.150566 0.091146 0)
(-0.167877 0.0660412 0)
(-0.183088 0.0342484 0)
(-0.194984 -0.00441711 0)
(-0.201825 -0.0492377 0)
(-0.20129 -0.097851 0)
(-0.190628 -0.145503 0)
(-0.16733 -0.184272 0)
(-0.130507 -0.203009 0)
(-0.0832758 -0.189396 0)
(-0.0355774 -0.136025 0)
(-0.00389226 -0.0506712 0)
(-0.00144698 0.0419862 0)
(-0.0138812 0.0988158 0)
(-0.0319164 0.132585 0)
(-0.0525368 0.149563 0)
(-0.073335 0.1549 0)
(-0.0934699 0.152183 0)
(-0.112763 0.143382 0)
(-0.131282 0.129148 0)
(-0.149098 0.109206 0)
(-0.166126 0.0827356 0)
(-0.181982 0.0487512 0)
(-0.195838 0.00651425 0)
(-0.206182 -0.0439485 0)
(-0.210649 -0.100994 0)
(-0.205966 -0.160318 0)
(-0.188233 -0.213506 0)
(-0.154234 -0.246812 0)
(-0.104434 -0.241934 0)
(-0.0481426 -0.182671 0)
(-0.0057515 -0.0713053 0)
(-0.00172297 0.0497251 0)
(-0.0156485 0.11493 0)
(-0.0343634 0.152327 0)
(-0.0546669 0.17001 0)
(-0.0739938 0.174715 0)
(-0.0917395 0.170976 0)
(-0.108037 0.161224 0)
(-0.123284 0.146261 0)
(-0.137911 0.125771 0)
(-0.152261 0.0987485 0)
(-0.166467 0.0638563 0)
(-0.180286 0.0197887 0)
(-0.192827 -0.0342274 0)
(-0.202195 -0.0977054 0)
(-0.205089 -0.167559 0)
(-0.196592 -0.236049 0)
(-0.170922 -0.288013 0)
(-0.124469 -0.299008 0)
(-0.0632215 -0.240041 0)
(-0.00843704 -0.0994838 0)
(-0.00229724 0.0587901 0)
(-0.0185095 0.132279 0)
(-0.037751 0.172108 0)
(-0.0567063 0.189014 0)
(-0.0728287 0.191807 0)
(-0.0859926 0.186117 0)
(-0.0968035 0.174851 0)
(-0.106078 0.158977 0)
(-0.114663 0.138195 0)
(-0.123382 0.111409 0)
(-0.132962 0.0770593 0)
(-0.143914 0.0333905 0)
(-0.156267 -0.0212002 0)
(-0.16911 -0.0875776 0)
(-0.179894 -0.164608 0)
(-0.183575 -0.246715 0)
(-0.172305 -0.319523 0)
(-0.137597 -0.354125 0)
(-0.0790938 -0.305997 0)
(-0.012185 -0.136978 0)
(-0.00348323 0.0701741 0)
(-0.0235293 0.151384 0)
(-0.0430425 0.191279 0)
(-0.0589891 0.204944 0)
(-0.069363 0.20392 0)
(-0.0750025 0.194978 0)
(-0.0772492 0.181407 0)
(-0.0774513 0.164285 0)
(-0.0769025 0.143346 0)
(-0.0768836 0.117496 0)
(-0.0786863 0.0851132 0)
(-0.0835714 0.0442099 0)
(-0.0925996 -0.00741947 0)
(-0.106202 -0.0719145 0)
(-0.123387 -0.150466 0)
(-0.140321 -0.241055 0)
(-0.148577 -0.333082 0)
(-0.135293 -0.397218 0)
(-0.0915373 -0.374143 0)
(-0.0170124 -0.184779 0)
(-0.00573965 0.0858436 0)
(-0.0322871 0.173116 0)
(-0.0511137 0.208568 0)
(-0.0608436 0.215121 0)
(-0.0613592 0.207743 0)
(-0.0553479 0.194074 0)
(-0.045242 0.177445 0)
(-0.0330126 0.158845 0)
(-0.020362 0.137969 0)
(-0.00891141 0.113757 0)
(-0.000344431 0.0846695 0)
(0.00351921 0.0487447 0)
(0.000752673 0.00356591 0)
(-0.0103837 -0.0537911 0)
(-0.0309124 -0.126554 0)
(-0.0596035 -0.216917 0)
(-0.089859 -0.321083 0)
(-0.106784 -0.415614 0)
(-0.0926329 -0.43268 0)
(-0.0220945 -0.241946 0)
(-0.00959703 0.110239 0)
(-0.0461015 0.198412 0)
(-0.0602699 0.220656 0)
(-0.0564841 0.214415 0)
(-0.0399286 0.197941 0)
(-0.0163618 0.178564 0)
(0.010557 0.158847 0)
(0.0383969 0.139261 0)
(0.0652946 0.11926 0)
(0.0895873 0.0977649 0)
(0.10951 0.0734116 0)
(0.123038 0.0444656 0)
(0.127802 0.0087045 0)
(0.121225 -0.0368483 0)
(0.10054 -0.0963801 0)
(0.0636728 -0.175426 0)
(0.0126926 -0.27867 0)
(-0.039865 -0.395961 0)
(-0.0702124 -0.46444 0)
(-0.0247342 -0.304483 0)
(-0.0168368 0.153689 0)
(-0.0614289 0.225482 0)
(-0.0547698 0.217345 0)
(-0.0208631 0.192016 0)
(0.023955 0.165883 0)
(0.0715881 0.142301 0)
(0.118484 0.121634 0)
(0.16275 0.103292 0)
(0.2031 0.0862595 0)
(0.238452 0.0693426 0)
(0.267391 0.0514472 0)
(0.288136 0.0313083 0)
(0.298397 0.00713432 0)
(0.29547 -0.0234279 0)
(0.275887 -0.0640059 0)
(0.234796 -0.121062 0)
(0.168148 -0.20603 0)
(0.0797157 -0.327258 0)
(-0.0087682 -0.446457 0)
(-0.0175876 -0.357533 0)
(-0.0229691 0.209652 0)
(-0.0367975 0.233078 0)
(0.0391044 0.177881 0)
(0.125714 0.137019 0)
(0.204237 0.10768 0)
(0.273415 0.0854355 0)
(0.333985 0.0683901 0)
(0.386544 0.054986 0)
(0.431438 0.0438417 0)
(0.468726 0.0338578 0)
(0.4976 0.0242678 0)
(0.517999 0.0139443 0)
(0.528125 0.00187432 0)
(0.525514 -0.0133096 0)
(0.506002 -0.0342161 0)
(0.464308 -0.0643449 0)
(0.39158 -0.115297 0)
(0.276434 -0.207939 0)
(0.123079 -0.339244 0)
(0.0351358 -0.336843 0)
(0.242369 0.109458 0)
(0.315137 0.0975059 0)
(0.447346 0.0568156 0)
(0.552798 0.0345574 0)
(0.626723 0.0228066 0)
(0.680948 0.0156448 0)
(0.722607 0.0109883 0)
(0.755246 0.00787358 0)
(0.780884 0.0056801 0)
(0.800699 0.00399716 0)
(0.815169 0.00249892 0)
(0.824194 0.000938474 0)
(0.82705 -0.000837291 0)
(0.822411 -0.00296486 0)
(0.807844 -0.00578007 0)
(0.778983 -0.010083 0)
(0.726579 -0.0180245 0)
(0.632681 -0.0345291 0)
(0.460449 -0.0836092 0)
(0.303596 -0.125167 0)
)
;

boundaryField
{
    movingWall
    {
        type            fixedValue;
        value           uniform (1 0 0);
    }
    fixedWalls
    {
        type            fixedValue;
        value           uniform (0 0 0);
    }
    frontAndBack
    {
        type            empty;
    }
}


// ************************************************************************* //
