/*--------------------------------*- C++ -*----------------------------------*\
  =========                 |
  \\      /  F ield         | OpenFOAM: The Open Source CFD Toolbox
   \\    /   O peration     | Website:  https://openfoam.org
    \\  /    A nd           | Version:  13
     \\/     M anipulation  |
\*---------------------------------------------------------------------------*/
FoamFile
{
    format      ascii;
    class       volVectorField;
    location    "9";
    object      U_0;
}
// * * * * * * * * * * * * * * * * * * * * * * * * * * * * * * * * * * * * * //

dimensions      [0 1 -1 0 0 0 0];

internalField   nonuniform List<vector> 
400
(
(8.61048e-05 -8.79422e-05 0)
(-0.000261419 8.54912e-05 0)
(-0.00136904 0.000255665 0)
(-0.00304924 0.000365588 0)
(-0.00503843 0.000421183 0)
(-0.00711096 0.000434038 0)
(-0.00909024 0.000412102 0)
(-0.0108303 0.000358391 0)
(-0.0122006 0.000273056 0)
(-0.0130795 0.00015657 0)
(-0.0133603 1.30135e-05 0)
(-0.0129664 -0.000147376 0)
(-0.0118739 -0.000306966 0)
(-0.0101369 -0.000441368 0)
(-0.00790658 -0.000522823 0)
(-0.00543596 -0.000526289 0)
(-0.00306284 -0.000437382 0)
(-0.00116319 -0.000260838 0)
(-5.73012e-05 -3.11199e-05 0)
(0.000146178 0.000143286 0)
(-9.02834e-05 0.000256751 0)
(-0.0016163 0.00156336 0)
(-0.00476375 0.00282566 0)
(-0.00909139 0.00364002 0)
(-0.0140506 0.00400463 0)
(-0.0191547 0.00399086 0)
(-0.0239924 0.00366484 0)
(-0.0282091 0.00306749 0)
(-0.0314873 0.00222219 0)
(-0.0335403 0.00115267 0)
(-0.0341276 -9.67476e-05 0)
(-0.0330887 -0.00144421 0)
(-0.0303911 -0.00276122 0)
(-0.0261808 -0.00387606 0)
(-0.0208183 -0.00459385 0)
(-0.0148815 -0.00473484 0)
(-0.00911841 -0.004188 0)
(-0.00433165 -0.00297599 0)
(-0.00119911 -0.00133502 0)
(1.66537e-05 -2.06906e-05 0)
(-0.000290074 0.00143246 0)
(-0.0031517 0.00479047 0)
(-0.00824063 0.00765535 0)
(-0.0148423 0.00948026 0)
(-0.0221985 0.0102673 0)
(-0.0296618 0.0101484 0)
(-0.0366746 0.00925514 0)
(-0.0427495 0.00768064 0)
(-0.0474482 0.00549059 0)
(-0.0503799 0.00275872 0)
(-0.051221 -0.000391698 0)
(-0.0497574 -0.00375221 0)
(-0.0459441 -0.0070111 0)
(-0.0399688 -0.0097629 0)
(-0.0323015 -0.0115558 0)
(-0.0237046 -0.0119813 0)
(-0.0151801 -0.0107986 0)
(-0.00782696 -0.00807667 0)
(-0.00263543 -0.00432896 0)
(-0.000149089 -0.000929342 0)
(-0.000462388 0.00339206 0)
(-0.00453323 0.00966809 0)
(-0.0114135 0.0145398 0)
(-0.0200565 0.0175377 0)
(-0.0295035 0.018747 0)
(-0.0389849 0.018394 0)
(-0.0478504 0.0166934 0)
(-0.0555306 0.0138014 0)
(-0.0615092 0.00983583 0)
(-0.0653178 0.00493066 0)
(-0.0665566 -0.000697474 0)
(-0.0649416 -0.00669163 0)
(-0.0603735 -0.0125223 0)
(-0.0530201 -0.017499 0)
(-0.0433899 -0.0208439 0)
(-0.03237 -0.0218389 0)
(-0.0211901 -0.0200385 0)
(-0.0112728 -0.0155089 0)
(-0.00398549 -0.00902482 0)
(-0.000291904 -0.0025559 0)
(-0.000609935 0.00602685 0)
(-0.00575973 0.0160224 0)
(-0.0142933 0.0232623 0)
(-0.0248237 0.0275541 0)
(-0.0361993 0.0291661 0)
(-0.0475486 0.0284697 0)
(-0.0581614 0.025784 0)
(-0.0674211 0.0213339 0)
(-0.0747588 0.0152854 0)
(-0.0796386 0.00782486 0)
(-0.0815727 -0.000745685 0)
(-0.0801701 -0.00992183 0)
(-0.0752165 -0.0189413 0)
(-0.0667827 -0.0267859 0)
(-0.0553415 -0.0322723 0)
(-0.0418592 -0.034259 0)
(-0.0278078 -0.0319679 0)
(-0.0150255 -0.0253626 0)
(-0.005387 -0.0154465 0)
(-0.000432894 -0.00484783 0)
(-0.000739959 0.00925921 0)
(-0.00688625 0.023729 0)
(-0.0169744 0.0336949 0)
(-0.0292988 0.0394069 0)
(-0.0425262 0.0414201 0)
(-0.0557022 0.0403124 0)
(-0.0680835 0.0365344 0)
(-0.0790329 0.0303813 0)
(-0.0879487 0.0220518 0)
(-0.0942311 0.0117575 0)
(-0.0972864 -0.000146203 0)
(-0.0965715 -0.0130345 0)
(-0.0916848 -0.0259188 0)
(-0.0825058 -0.0374186 0)
(-0.0693732 -0.0458491 0)
(-0.0532643 -0.0494796 0)
(-0.0359003 -0.0469906 0)
(-0.0196517 -0.0380614 0)
(-0.00710105 -0.0238709 0)
(-0.000606849 -0.00786856 0)
(-0.00085846 0.0130528 0)
(-0.00796915 0.0327162 0)
(-0.0195523 0.0457646 0)
(-0.0336165 0.0530375 0)
(-0.0486576 0.0554815 0)
(-0.0636608 0.0539483 0)
(-0.077877 0.0490499 0)
(-0.0906766 0.0411501 0)
(-0.101446 0.0304539 0)
(-0.109531 0.0171536 0)
(-0.114221 0.00160131 0)
(-0.114782 -0.015514 0)
(-0.11055 -0.0330134 0)
(-0.101104 -0.0491397 0)
(-0.0865142 -0.0616044 0)
(-0.0676433 -0.0678711 0)
(-0.0464112 -0.0657625 0)
(-0.0258242 -0.0543604 0)
(-0.00945059 -0.0348884 0)
(-0.000855445 -0.0118397 0)
(-0.000969072 0.0174018 0)
(-0.00904999 0.0429519 0)
(-0.0220905 0.0594318 0)
(-0.0378483 0.0684099 0)
(-0.0546529 0.0713366 0)
(-0.071455 0.0694116 0)
(-0.0875312 0.0634411 0)
(-0.102293 0.0538542 0)
(-0.115146 0.0408287 0)
(-0.125405 0.0244782 0)
(-0.132253 0.00507302 0)
(-0.134747 -0.016723 0)
(-0.131907 -0.0396183 0)
(-0.1229 -0.0615083 0)
(-0.107355 -0.0794236 0)
(-0.0858151 -0.0897762 0)
(-0.0602331 -0.089094 0)
(-0.0342712 -0.0753355 0)
(-0.0128159 -0.049444 0)
(-0.00122902 -0.0171625 0)
(-0.00107432 0.0223206 0)
(-0.0101573 0.0544236 0)
(-0.0246163 0.0746587 0)
(-0.0419895 0.0854627 0)
(-0.0604361 0.0889188 0)
(-0.0788993 0.0866595 0)
(-0.0967176 0.0797234 0)
(-0.113384 0.0686033 0)
(-0.128368 0.0534152 0)
(-0.141002 0.0341289 0)
(-0.150403 0.0108377 0)
(-0.155452 -0.0159402 0)
(-0.15484 -0.04493 0)
(-0.147241 -0.0737833 0)
(-0.131662 -0.0988497 0)
(-0.10803 -0.115274 0)
(-0.0779983 -0.117752 0)
(-0.0457038 -0.102297 0)
(-0.0176457 -0.0688564 0)
(-0.00179222 -0.0244495 0)
(-0.00117895 0.0278404 0)
(-0.0113199 0.0671227 0)
(-0.0271363 0.0913778 0)
(-0.0459714 0.104058 0)
(-0.0657992 0.108035 0)
(-0.0855846 0.105477 0)
(-0.104768 0.0976992 0)
(-0.12297 0.0852653 0)
(-0.139786 0.0682021 0)
(-0.154637 0.0462771 0)
(-0.166665 0.0193101 0)
(-0.174663 -0.0124682 0)
(-0.177065 -0.0479814 0)
(-0.172053 -0.0848432 0)
(-0.157869 -0.118864 0)
(-0.133486 -0.143842 0)
(-0.099718 -0.152103 0)
(-0.0606567 -0.136568 0)
(-0.024456 -0.0947931 0)
(-0.00263272 -0.0345686 0)
(-0.00129636 0.0340162 0)
(-0.0125931 0.0810401 0)
(-0.0296724 0.109463 0)
(-0.0496963 0.123924 0)
(-0.0704315 0.128286 0)
(-0.0908996 0.12537 0)
(-0.110688 0.116828 0)
(-0.1296 0.103311 0)
(-0.147423 0.084747 0)
(-0.163767 0.0606673 0)
(-0.177935 0.0305438 0)
(-0.188791 -0.00581424 0)
(-0.194693 -0.0477694 0)
(-0.193465 -0.0931907 0)
(-0.182566 -0.1377 0)
(-0.159723 -0.173952 0)
(-0.124231 -0.191572 0)
(-0.0791637 -0.179028 0)
(-0.033782 -0.129131 0)
(-0.0038725 -0.048695 0)
(-0.00146027 0.0409556 0)
(-0.0141044 0.0961823 0)
(-0.0323198 0.128705 0)
(-0.0530929 0.144597 0)
(-0.0739665 0.148976 0)
(-0.0940755 0.145458 0)
(-0.113213 0.136098 0)
(-0.131425 0.121661 0)
(-0.148765 0.101999 0)
(-0.165141 0.076408 0)
(-0.180176 0.0439843 0)
(-0.193051 0.00401608 0)
(-0.202319 -0.0435117 0)
(-0.205729 -0.0971209 0)
(-0.200183 -0.152816 0)
(-0.182067 -0.202721 0)
(-0.148511 -0.233952 0)
(-0.100199 -0.229352 0)
(-0.046013 -0.173581 0)
(-0.00567926 -0.0683513 0)
(-0.00174627 0.048885 0)
(-0.016129 0.112619 0)
(-0.0353304 0.148799 0)
(-0.0561794 0.165353 0)
(-0.0760226 0.169019 0)
(-0.0942224 0.164371 0)
(-0.110869 0.153921 0)
(-0.126323 0.138584 0)
(-0.140976 0.118175 0)
(-0.155137 0.0918121 0)
(-0.168905 0.0582527 0)
(-0.182011 0.0162413 0)
(-0.193555 -0.0350208 0)
(-0.201673 -0.09512 0)
(-0.203179 -0.161175 0)
(-0.193419 -0.225859 0)
(-0.167036 -0.274811 0)
(-0.120891 -0.284951 0)
(-0.0609931 -0.228898 0)
(-0.00826915 -0.0953785 0)
(-0.00231153 0.0582807 0)
(-0.0192106 0.130564 0)
(-0.0392079 0.169298 0)
(-0.0590855 0.185099 0)
(-0.0761593 0.186826 0)
(-0.0902594 0.180155 0)
(-0.101934 0.168075 0)
(-0.111947 0.151665 0)
(-0.121096 0.130754 0)
(-0.130151 0.10437 0)
(-0.139786 0.0710456 0)
(-0.150449 0.0290759 0)
(-0.162103 -0.0231391 0)
(-0.173786 -0.0865031 0)
(-0.182956 -0.159971 0)
(-0.184717 -0.23819 0)
(-0.171601 -0.307364 0)
(-0.135719 -0.339908 0)
(-0.0772448 -0.293499 0)
(-0.01187 -0.131694 0)
(-0.00345199 0.0700967 0)
(-0.024328 0.150471 0)
(-0.0447408 0.189491 0)
(-0.0618731 0.202152 0)
(-0.0735196 0.200091 0)
(-0.0804624 0.190142 0)
(-0.0839726 0.175675 0)
(-0.0853422 0.157883 0)
(-0.085811 0.136627 0)
(-0.0866058 0.110934 0)
(-0.0889556 0.0792663 0)
(-0.0940445 0.0396724 0)
(-0.102839 -0.0100594 0)
(-0.115662 -0.0721158 0)
(-0.131418 -0.147704 0)
(-0.146252 -0.234856 0)
(-0.151927 -0.323222 0)
(-0.136095 -0.384458 0)
(-0.0907616 -0.361617 0)
(-0.0165349 -0.178584 0)
(-0.00561303 0.0862079 0)
(-0.0329648 0.173059 0)
(-0.0526158 0.20794 0)
(-0.063568 0.21366 0)
(-0.0654378 0.20533 0)
(-0.0608555 0.19067 0)
(-0.052185 0.17311 0)
(-0.0413496 0.153758 0)
(-0.0300036 0.132435 0)
(-0.0197161 0.108197 0)
(-0.0121054 0.0795772 0)
(-0.00890601 0.0446308 0)
(-0.0119513 0.00090605 0)
(-0.0228549 -0.0546031 0)
(-0.042482 -0.125165 0)
(-0.0694468 -0.212954 0)
(-0.0970682 -0.314125 0)
(-0.110661 -0.405665 0)
(-0.0935741 -0.421793 0)
(-0.0215579 -0.235453 0)
(-0.00932758 0.110877 0)
(-0.0463882 0.199028 0)
(-0.0610606 0.221034 0)
(-0.058228 0.214182 0)
(-0.0427773 0.196887 0)
(-0.0204475 0.176601 0)
(0.00514034 0.155997 0)
(0.0315835 0.13567 0)
(0.0570604 0.11519 0)
(0.0799702 0.0935739 0)
(0.0986344 0.0695209 0)
(0.111123 0.0413022 0)
(0.11517 0.00663801 0)
(0.10833 -0.0375373 0)
(0.0879381 -0.0955283 0)
(0.0520953 -0.172936 0)
(0.00315122 -0.274292 0)
(-0.0461437 -0.389351 0)
(-0.0729077 -0.456561 0)
(-0.0243286 -0.298435 0)
(-0.0163817 0.154253 0)
(-0.0611846 0.226427 0)
(-0.0545966 0.218341 0)
(-0.0210949 0.192615 0)
(0.0231649 0.165837 0)
(0.0700228 0.141526 0)
(0.115908 0.120147 0)
(0.158945 0.101208 0)
(0.197892 0.0837923 0)
(0.231755 0.0667582 0)
(0.259269 0.0490272 0)
(0.278725 0.029396 0)
(0.287975 0.00602078 0)
(0.284497 -0.0235359 0)
(0.264796 -0.0630373 0)
(0.224134 -0.119137 0)
(0.158693 -0.203257 0)
(0.0728065 -0.323539 0)
(-0.0123521 -0.442339 0)
(-0.0174448 -0.353136 0)
(-0.0224552 0.210059 0)
(-0.0366264 0.233975 0)
(0.039951 0.178461 0)
(0.126736 0.137461 0)
(0.205277 0.107743 0)
(0.274204 0.0850416 0)
(0.334173 0.0675701 0)
(0.385802 0.0538318 0)
(0.429484 0.0424947 0)
(0.465533 0.0324416 0)
(0.49289 0.0230637 0)
(0.511955 0.0130947 0)
(0.521052 0.00149705 0)
(0.517849 -0.0131864 0)
(0.498088 -0.0334374 0)
(0.456585 -0.0629864 0)
(0.384401 -0.113956 0)
(0.270759 -0.207397 0)
(0.118786 -0.340025 0)
(0.0345311 -0.335247 0)
(0.242608 0.109535 0)
(0.315712 0.0976594 0)
(0.448398 0.0569862 0)
(0.553902 0.0347199 0)
(0.627806 0.0228741 0)
(0.681869 0.0156614 0)
(0.723097 0.0110035 0)
(0.755076 0.00790754 0)
(0.779929 0.00574385 0)
(0.798931 0.00410665 0)
(0.812696 0.00266489 0)
(0.821211 0.00119024 0)
(0.823851 -0.000465028 0)
(0.819365 -0.00243524 0)
(0.805333 -0.00506949 0)
(0.777432 -0.00914779 0)
(0.726174 -0.0168308 0)
(0.633515 -0.0329522 0)
(0.461064 -0.0820507 0)
(0.303148 -0.124649 0)
)
;

boundaryField
{
    movingWall
    {
        type            calculated;
        value           uniform (1 0 0);
    }
    fixedWalls
    {
        type            calculated;
        value           uniform (0 0 0);
    }
    frontAndBack
    {
        type            empty;
    }
}


// ************************************************************************* //
