/*--------------------------------*- C++ -*----------------------------------*\
  =========                 |
  \\      /  F ield         | OpenFOAM: The Open Source CFD Toolbox
   \\    /   O peration     | Website:  https://openfoam.org
    \\  /    A nd           | Version:  13
     \\/     M anipulation  |
\*---------------------------------------------------------------------------*/
FoamFile
{
    format      ascii;
    class       volScalarField;
    location    "21";
    object      p;
}
// * * * * * * * * * * * * * * * * * * * * * * * * * * * * * * * * * * * * * //

dimensions      [0 2 -2 0 0 0 0];

internalField   nonuniform List<scalar> 
400
(
-3.4404e-09
-0.00048665
-0.00106853
-0.0015013
-0.00167155
-0.00153438
-0.0010706
-0.000275202
0.000838005
0.00222383
0.00379283
0.0054058
0.00688303
0.00803179
0.00869061
0.00878032
0.00834486
0.00756719
0.00674905
0.00622437
0.000491814
-1.1599e-05
-0.000519549
-0.000860274
-0.000977021
-0.000845249
-0.000449079
0.00022026
0.00115727
0.0023299
0.00366707
0.00505265
0.00633183
0.00733564
0.00792078
0.00801592
0.00765702
0.00699448
0.00626615
0.00573081
0.00109629
0.000460783
-7.65072e-05
-0.000388635
-0.000491887
-0.000392856
-8.17863e-05
0.000456473
0.00123037
0.00222661
0.0033947
0.00463707
0.00581192
0.00675442
0.00731618
0.00741336
0.00706348
0.00638804
0.00557742
0.00487779
0.00151876
0.000697146
5.51566e-05
-0.000296059
-0.000437941
-0.000407636
-0.000200285
0.000209087
0.000847873
0.00172613
0.00281545
0.00403262
0.00523641
0.0062454
0.00687936
0.0070153
0.00663512
0.00583462
0.00479091
0.00380548
0.00153096
0.000518592
-0.00025344
-0.000682427
-0.000905093
-0.00098285
-0.000910781
-0.000648996
-0.000145387
0.000639693
0.00170555
0.0029861
0.00433741
0.0055491
0.00638625
0.00665687
0.00627984
0.00531462
0.00394576
0.00258266
0.000945893
-0.000240386
-0.00114611
-0.00167796
-0.00202065
-0.00225333
-0.00236563
-0.00229721
-0.00196431
-0.00128826
-0.000230173
0.00117308
0.00278267
0.00435563
0.00558176
0.00616223
0.00590753
0.00480687
0.00305257
0.00121553
-0.00039646
-0.00173015
-0.00276601
-0.00342329
-0.00392958
-0.00437707
-0.00474613
-0.00495154
-0.00487042
-0.00437241
-0.00336
-0.00181709
0.000144852
0.00226039
0.00412953
0.00530062
0.00540505
0.0042907
0.00212503
-0.000297607
-0.00262577
-0.00407453
-0.00523419
-0.00604009
-0.0067597
-0.00749636
-0.00822057
-0.00882035
-0.00912749
-0.00894559
-0.0080932
-0.00646501
-0.0041039
-0.00126515
0.00156466
0.00373537
0.00460076
0.0037414
0.00120843
-0.00191662
-0.00583239
-0.00735916
-0.00863231
-0.00960646
-0.0105887
-0.0116959
-0.0128921
-0.0140412
-0.014927
-0.0152743
-0.0147904
-0.013235
-0.0105213
-0.00683054
-0.00269698
0.001007
0.00324289
0.00312973
0.00041327
-0.00350174
-0.0100585
-0.0116217
-0.0129876
-0.0141327
-0.0154087
-0.0169535
-0.0187341
-0.0205975
-0.0222826
-0.0234292
-0.0236104
-0.0224045
-0.0195222
-0.0149735
-0.00924929
-0.00341111
0.00101589
0.00243543
-3.80749e-05
-0.00473022
-0.0152965
-0.0168483
-0.0182625
-0.0195398
-0.0210911
-0.0230912
-0.0255241
-0.028232
-0.0309178
-0.0331387
-0.0343232
-0.0338345
-0.0311124
-0.0258817
-0.0184433
-0.00992497
-0.0023495
0.00171008
0.000265269
-0.00496682
-0.0215031
-0.022984
-0.024355
-0.0256467
-0.0273629
-0.0297422
-0.0328027
-0.0363952
-0.0401973
-0.0436935
-0.0461725
-0.046775
-0.0446191
-0.0390534
-0.0300141
-0.0184745
-0.00681678
0.00124381
0.00205993
-0.00306359
-0.0286426
-0.0299625
-0.0311122
-0.0321712
-0.0338037
-0.036352
-0.039885
-0.0442683
-0.0491601
-0.0539807
-0.0578927
-0.0598255
-0.0585819
-0.0530773
-0.0427415
-0.0281256
-0.0116586
0.00186287
0.00664396
0.00293225
-0.036783
-0.0377662
-0.0383564
-0.0387421
-0.039867
-0.0422255
-0.0459418
-0.0508859
-0.0566856
-0.0626934
-0.0679543
-0.0712094
-0.0709761
-0.0657517
-0.0544036
-0.0368414
-0.0151167
0.00527785
0.016206
0.0161475
-0.0462957
-0.0465268
-0.0459177
-0.0449193
-0.0449287
-0.0466214
-0.050147
-0.0553395
-0.0617587
-0.0686634
-0.0749706
-0.0792432
-0.0797455
-0.074612
-0.0621903
-0.0416729
-0.0143474
0.0142866
0.0340853
0.0411174
-0.058201
-0.0566965
-0.0536813
-0.0502314
-0.0483729
-0.0488929
-0.0518641
-0.0570041
-0.0637368
-0.0711781
-0.0780825
-0.0828189
-0.0834071
-0.0776572
-0.0634757
-0.0394033
-0.00577143
0.0327069
0.0647297
0.0833663
-0.0747503
-0.0693581
-0.0616164
-0.0542009
-0.0496785
-0.0486095
-0.0507809
-0.0556653
-0.0624702
-0.0701043
-0.0771164
-0.08165
-0.081459
-0.0740134
-0.056776
-0.0276692
0.0139845
0.0649814
0.113917
0.149637
-0.103029
-0.0869802
-0.069381
-0.0559582
-0.0481243
-0.0453069
-0.0466798
-0.0513164
-0.0581116
-0.0657271
-0.0724971
-0.0763288
-0.0746979
-0.0646831
-0.043161
-0.00716134
0.0454479
0.114128
0.190454
0.257273
-0.175067
-0.114129
-0.0733384
-0.05189
-0.0412438
-0.0374156
-0.0386823
-0.0436203
-0.0507514
-0.0585215
-0.0651523
-0.0683956
-0.0655181
-0.0532529
-0.0277972
0.0152631
0.0811041
0.175604
0.303488
0.451436
-0.354947
-0.154519
-0.0700758
-0.0427502
-0.0314006
-0.0274519
-0.0292337
-0.0349593
-0.0428055
-0.0510676
-0.0579023
-0.0610711
-0.0578241
-0.0447871
-0.0175382
0.0299305
0.107169
0.231973
0.433428
0.734618
)
;

boundaryField
{
    movingWall
    {
        type            zeroGradient;
    }
    fixedWalls
    {
        type            zeroGradient;
    }
    frontAndBack
    {
        type            empty;
    }
}


// ************************************************************************* //
