/*--------------------------------*- C++ -*----------------------------------*\
  =========                 |
  \\      /  F ield         | OpenFOAM: The Open Source CFD Toolbox
   \\    /   O peration     | Website:  https://openfoam.org
    \\  /    A nd           | Version:  13
     \\/     M anipulation  |
\*---------------------------------------------------------------------------*/
FoamFile
{
    format      ascii;
    class       surfaceScalarField;
    location    "21";
    object      phi_0;
}
// * * * * * * * * * * * * * * * * * * * * * * * * * * * * * * * * * * * * * //

dimensions      [0 3 -1 0 0 0 0];

internalField   nonuniform List<scalar> 
760
(
2.83827e-06
-2.83783e-06
-3.87633e-05
4.16014e-05
-0.000125741
8.69783e-05
-0.000243285
0.000117543
-0.000376531
0.000133247
-0.000512972
0.00013644
-0.000641631
0.00012866
-0.00075186
0.00011023
-0.000832782
8.09223e-05
-0.000873817
4.10361e-05
-0.000866283
-7.53283e-06
-0.00080579
-6.04929e-05
-0.000694747
-0.000111043
-0.000544155
-0.000150592
-0.000373652
-0.000170503
-0.000209048
-0.000164605
-7.7234e-05
-0.000131814
8.62211e-07
-7.80963e-05
1.91626e-05
-1.83009e-05
1.91624e-05
-4.46374e-05
4.17999e-05
-0.000195346
0.000192311
-0.000440171
0.000331803
-0.000748642
0.000426013
-0.00108893
0.00047353
-0.00143184
0.000479352
-0.00175034
0.000447159
-0.0020182
0.00037809
-0.00220977
0.000272498
-0.00230162
0.000132887
-0.00227598
-3.31711e-05
-0.00212534
-0.000211129
-0.00185712
-0.000379265
-0.00149664
-0.000511074
-0.00108685
-0.000580296
-0.000683234
-0.000568218
-0.000343505
-0.000471543
-0.00011311
-0.000308492
-9.15312e-06
-0.000122258
1.00091e-05
-0.000103083
0.000144882
-0.000373808
0.000463036
-0.00076965
0.000727644
-0.00124549
0.000901855
-0.00175806
0.000986089
-0.00226731
0.000988605
-0.00273549
0.000915348
-0.00312598
0.000768577
-0.00340352
0.000550045
-0.00353664
0.000266005
-0.00350189
-6.79253e-05
-0.00328937
-0.000423643
-0.00290833
-0.00076031
-0.00239108
-0.00102832
-0.00179345
-0.00117792
-0.00118945
-0.00117222
-0.000658923
-0.00100207
-0.000269082
-0.000698333
-5.42515e-05
-0.000337087
-4.42426e-05
-0.000158254
0.000303137
-0.000544305
0.000849088
-0.00108266
0.001266
-0.00171123
0.00153042
-0.00237669
0.00165155
-0.00303157
0.00164349
-0.00363144
0.00151522
-0.00413315
0.00127029
-0.00449501
0.000911905
-0.00467921
0.000450206
-0.00465629
-9.08519e-05
-0.00441105
-0.000668882
-0.00394921
-0.00122215
-0.00330326
-0.00167427
-0.00253542
-0.00194576
-0.00173454
-0.0019731
-0.00100377
-0.00173283
-0.000438689
-0.00126342
-0.000101151
-0.000674626
-0.000145394
-0.00020762
0.000510757
-0.000698791
0.00134026
-0.00136764
0.00193485
-0.00213545
0.00229823
-0.00294008
0.00245617
-0.00372903
0.00243244
-0.00445423
0.00224043
-0.0050689
0.00188495
-0.00552686
0.00136986
-0.00578433
0.000707674
-0.00580393
-7.12473e-05
-0.00556082
-0.000911992
-0.00505067
-0.0017323
-0.00429866
-0.00242629
-0.00336711
-0.0028773
-0.00235752
-0.0029827
-0.00140073
-0.00268962
-0.000631563
-0.00203259
-0.000152167
-0.00115402
-0.000297562
-0.00025027
0.000761026
-0.00083321
0.0019232
-0.00161706
0.0027187
-0.00250869
0.00318986
-0.00343897
0.00338645
-0.00435269
0.00334616
-0.00520074
0.00308847
-0.00593514
0.00261936
-0.00650692
0.00194165
-0.00686652
0.00106727
-0.00696671
2.89484e-05
-0.00676857
-0.00111014
-0.00625075
-0.00225012
-0.00542234
-0.00325469
-0.00433722
-0.00396242
-0.00310466
-0.00421526
-0.0018864
-0.00390788
-0.000869588
-0.0030494
-0.000214775
-0.00180883
-0.000512336
-0.000285093
0.00104612
-0.000943394
0.0025815
-0.00182268
0.00359799
-0.00281843
0.00418561
-0.00385686
0.00442488
-0.00488232
0.00437162
-0.00584722
0.00405336
-0.00670498
0.00347712
-0.00740597
0.00264264
-0.00789595
0.00155724
-0.00811731
0.000250304
-0.00801401
-0.00121344
-0.0075415
-0.00272263
-0.00668299
-0.0041132
-0.00547164
-0.00517377
-0.00401353
-0.00567337
-0.0024986
-0.0054228
-0.00117874
-0.00436926
-0.000298331
-0.00268924
-0.000810667
-0.000310701
0.00135682
-0.00102459
0.00329539
-0.00197482
0.00454822
-0.00304864
0.00525943
-0.00416989
0.00554613
-0.00528475
0.00548649
-0.00634976
0.00511837
-0.00732271
0.00445007
-0.00815644
0.00347637
-0.00879497
0.00219577
-0.0091724
0.000627726
-0.00921563
-0.00117021
-0.00885326
-0.003085
-0.00803351
-0.00493295
-0.00675325
-0.00645402
-0.00509601
-0.00733061
-0.00326581
-0.00725301
-0.00158477
-0.0060503
-0.000413285
-0.00386072
-0.00122395
-0.000325973
0.00168279
-0.00107268
0.0040421
-0.00206418
0.00553971
-0.00318216
0.00637742
-0.00435002
0.00671399
-0.00551785
0.00665432
-0.00664894
0.00624945
-0.00770885
0.00550998
-0.00865719
0.00442471
-0.00944142
0.00298
-0.00999281
0.00117911
-0.0102258
-0.000937227
-0.0100435
-0.00326732
-0.00935354
-0.00562289
-0.00810051
-0.00770705
-0.0063181
-0.00911302
-0.00419387
-0.00937724
-0.00210865
-0.00813553
-0.00057098
-0.00539839
-0.00179493
-0.000331059
0.00201385
-0.0010866
0.00479765
-0.00208553
0.00653864
-0.00320563
0.00749752
-0.00437135
0.00787972
-0.00553862
0.00782159
-0.00667999
0.00739083
-0.0077725
0.00660248
-0.00878769
0.0054399
-0.0096835
0.00387581
-0.0103972
0.00189284
-0.0108405
-0.000493926
-0.0108992
-0.00320868
-0.0104421
-0.00607992
-0.00935063
-0.00879856
-0.00757814
-0.0108855
-0.00524804
-0.0117073
-0.00275892
-0.0106246
-0.00078321
-0.0073741
-0.00257814
-0.000328837
0.00234269
-0.0010718
0.00554061
-0.0020429
0.00750974
-0.0031163
0.00857092
-0.00421897
0.00898239
-0.00531471
0.00891733
-0.00638807
0.00846419
-0.00743107
0.00764548
-0.00843253
0.00644136
-0.00936858
0.00481186
-0.0101934
0.0027177
-0.0108298
0.000142479
-0.0111616
-0.0028769
-0.0110315
-0.00621009
-0.010258
-0.00957207
-0.00869095
-0.0124525
-0.00633173
-0.0140666
-0.00351873
-0.0134376
-0.00106057
-0.00983226
-0.00363871
-0.000326937
0.00266963
-0.00104453
0.0062582
-0.00195549
0.0084207
-0.00292936
0.00954479
-0.00389812
0.00995114
-0.00483678
0.00985599
-0.005745
0.00937241
-0.00663311
0.0085336
-0.00751149
0.00731974
-0.00838112
0.00568149
-0.00922335
0.00355993
-0.00998761
0.000906739
-0.0105757
-0.0022888
-0.0108279
-0.00595791
-0.0105185
-0.00988146
-0.00938957
-0.0135814
-0.00726927
-0.0161869
-0.00432729
-0.0163796
-0.00140818
-0.0127514
-0.00504688
-0.000340636
0.00301026
-0.001037
0.00695456
-0.00186322
0.00924692
-0.00268327
0.0103648
-0.00344007
0.0107079
-0.00412609
0.010542
-0.00476056
0.0100069
-0.00537499
0.00914803
-0.00600374
0.00794849
-0.00667615
0.0063539
-0.0074074
0.00429118
-0.00818553
0.00168486
-0.00895192
-0.0015224
-0.00957514
-0.00533468
-0.00982257
-0.00963404
-0.00935463
-0.0140494
-0.00780482
-0.0177367
-0.00506029
-0.0191242
-0.00181706
-0.0159946
-0.00686394
-0.000397466
0.00340773
-0.00110295
0.00766005
-0.00182952
0.00997348
-0.00243872
0.010974
-0.00289805
0.0111673
-0.00322892
0.0108729
-0.00347663
0.0102546
-0.00369641
0.00936781
-0.00394671
0.00819879
-0.00428452
0.00669172
-0.00475946
0.00476612
-0.00540347
0.00232888
-0.00621242
-0.000713461
-0.00711412
-0.00443298
-0.00791935
-0.00882882
-0.00826674
-0.013702
-0.00762421
-0.0183792
-0.00551732
-0.021231
-0.00224931
-0.0192626
-0.00911325
-0.000543885
0.00395161
-0.00132136
0.00843752
-0.00193412
0.0105862
-0.00225945
0.0112994
-0.00231825
0.0112261
-0.00217978
0.0107344
-0.00192422
0.00999903
-0.00163253
0.00907612
-0.001385
0.00795126
-0.00126163
0.00656835
-0.00134099
0.00484548
-0.00169543
0.00268333
-0.00237874
-3.01537e-05
-0.003398
-0.00341371
-0.00465676
-0.00757006
-0.00585635
-0.0125024
-0.00638933
-0.0178462
-0.0054184
-0.022202
-0.0026144
-0.0220666
-0.0117276
-0.000847147
0.00479876
-0.00178259
0.00937296
-0.00222714
0.0110308
-0.00213628
0.0112085
-0.0016419
0.0107317
-0.000888516
0.00998104
-1.25843e-07
0.00911064
0.000917041
0.00815896
0.00176591
0.00710239
0.00245157
0.00588268
0.00287633
0.00442072
0.00293822
0.00262144
0.00253474
0.000373318
0.00157899
-0.00245796
4.59901e-05
-0.00603706
-0.00191318
-0.0105432
-0.00375941
-0.016
-0.00440119
-0.0215602
-0.00273202
-0.0237358
-0.0144597
-0.00137201
0.00617077
-0.00249652
0.0104975
-0.00253659
0.0110709
-0.00172741
0.0103993
-0.000414863
0.00941914
0.00115713
0.00840905
0.00282414
0.00744363
0.00446537
0.00651772
0.00598049
0.00558727
0.00727323
0.00458995
0.00824086
0.00345309
0.00876752
0.00209479
0.00872005
0.000420786
0.0079511
-0.00168901
0.00631994
-0.0044059
0.00377998
-0.00800327
0.000633903
-0.0128539
-0.00201797
-0.0189083
-0.00230365
-0.0234501
-0.0167633
-0.00213855
0.00830932
-0.00295301
0.0113119
-0.00176557
0.00988342
0.000396589
0.00823717
0.00291366
0.00690207
0.00550243
0.00582028
0.00801567
0.00493039
0.0103609
0.00417245
0.0124667
0.00348154
0.0142595
0.00279707
0.0156524
0.00206027
0.016536
0.00121118
0.0167701
0.000186655
0.0161788
-0.00109773
0.0145425
-0.00276956
0.0116227
-0.00508351
0.00732937
-0.00856058
0.002356
-0.0139349
-0.000924919
-0.0201692
-0.0176882
-0.00247601
0.0107853
-1.63517e-06
0.00883756
0.00417244
0.00570935
0.00829011
0.0041195
0.0120417
0.00315044
0.0154029
0.00245916
0.0183802
0.00195309
0.0209848
0.00156784
0.0232172
0.00124915
0.0250581
0.000956151
0.0264622
0.000656199
0.02735
0.000323293
0.0276029
-6.61732e-05
0.0270566
-0.000551488
0.0254674
-0.00118036
0.0224721
-0.00208822
0.0175653
-0.00365369
0.0103637
-0.00673343
0.00245147
-0.0122569
-0.0152368
0.0107853
0.0196229
0.0253322
0.0294517
0.0326022
0.0350613
0.0370144
0.0385823
0.0398314
0.0407876
0.0414438
0.041767
0.0417009
0.0411494
0.039969
0.0378808
0.0342271
0.0274937
0.0152368
)
;

boundaryField
{
    movingWall
    {
        type            calculated;
        value           uniform 0;
    }
    fixedWalls
    {
        type            calculated;
        value           uniform 0;
    }
    frontAndBack
    {
        type            empty;
    }
}


// ************************************************************************* //
