/*--------------------------------*- C++ -*----------------------------------*\
  =========                 |
  \\      /  F ield         | OpenFOAM: The Open Source CFD Toolbox
   \\    /   O peration     | Website:  https://openfoam.org
    \\  /    A nd           | Version:  13
     \\/     M anipulation  |
\*---------------------------------------------------------------------------*/
FoamFile
{
    format      ascii;
    class       volVectorField;
    location    "41";
    object      U;
}
// * * * * * * * * * * * * * * * * * * * * * * * * * * * * * * * * * * * * * //

dimensions      [0 1 -1 0 0 0 0];

internalField   nonuniform List<vector> 
400
(
(0.000182672 -0.000186564 0)
(-0.000137922 3.01314e-05 0)
(-0.00153355 0.000268382 0)
(-0.00378544 0.000419435 0)
(-0.00654558 0.000499282 0)
(-0.00951258 0.000529729 0)
(-0.0124364 0.000520542 0)
(-0.0150833 0.000470651 0)
(-0.0172126 0.000373265 0)
(-0.0185775 0.000222969 0)
(-0.0189522 2.30078e-05 0)
(-0.0181816 -0.000209194 0)
(-0.0162404 -0.000439644 0)
(-0.0132847 -0.00062173 0)
(-0.00967114 -0.000706787 0)
(-0.00592696 -0.000659865 0)
(-0.00265885 -0.000474812 0)
(-0.000408704 -0.000182221 0)
(0.000539316 0.000136861 0)
(0.00030945 0.000302476 0)
(-4.72817e-05 0.000136868 0)
(-0.00207818 0.0019317 0)
(-0.00643 0.00375832 0)
(-0.0125771 0.00502141 0)
(-0.0197611 0.0056863 0)
(-0.027311 0.00582944 0)
(-0.0346218 0.00550139 0)
(-0.0411113 0.00470854 0)
(-0.0461994 0.00344107 0)
(-0.0493279 0.00171841 0)
(-0.0500239 -0.00036661 0)
(-0.0479974 -0.0026194 0)
(-0.0432496 -0.00474272 0)
(-0.0361597 -0.00637336 0)
(-0.027513 -0.0071585 0)
(-0.0184362 -0.00686098 0)
(-0.0102195 -0.00546583 0)
(-0.00403261 -0.00325533 0)
(-0.00057712 -0.000861668 0)
(0.000221359 0.000588521 0)
(-0.000353189 0.00171617 0)
(-0.00448342 0.0064621 0)
(-0.0118626 0.0106675 0)
(-0.0215867 0.0135112 0)
(-0.0325585 0.0149443 0)
(-0.0438658 0.0150944 0)
(-0.0546701 0.0140507 0)
(-0.064155 0.0118355 0)
(-0.071518 0.00846229 0)
(-0.0760073 0.00402577 0)
(-0.0770033 -0.00121329 0)
(-0.0741347 -0.00677822 0)
(-0.0674035 -0.0119827 0)
(-0.0572902 -0.0160099 0)
(-0.0447992 -0.0180703 0)
(-0.0314032 -0.0176237 0)
(-0.0188441 -0.014615 0)
(-0.00878857 -0.00964732 0)
(-0.00241844 -0.0040553 0)
(3.49516e-05 2.35068e-05 0)
(-0.000630413 0.00459195 0)
(-0.00680627 0.0136661 0)
(-0.0170898 0.0209096 0)
(-0.0301304 0.0256153 0)
(-0.0444896 0.0278482 0)
(-0.0590745 0.0278271 0)
(-0.0729004 0.0256915 0)
(-0.0850097 0.0214876 0)
(-0.0944631 0.0152676 0)
(-0.100378 0.0072276 0)
(-0.102013 -0.0021673 0)
(-0.0988829 -0.0121106 0)
(-0.0908964 -0.0214609 0)
(-0.0784894 -0.028854 0)
(-0.0627215 -0.0329376 0)
(-0.0452799 -0.0327244 0)
(-0.0283157 -0.027998 0)
(-0.0140775 -0.0196411 0)
(-0.00443062 -0.00974616 0)
(-0.000125399 -0.00151694 0)
(-0.000869269 0.00864797 0)
(-0.00888437 0.0233161 0)
(-0.0218049 0.0341542 0)
(-0.0378411 0.0408945 0)
(-0.0552351 0.0438892 0)
(-0.0727581 0.0435249 0)
(-0.089346 0.040018 0)
(-0.103973 0.033445 0)
(-0.115624 0.0238933 0)
(-0.123321 0.0116495 0)
(-0.126186 -0.00263427 0)
(-0.123554 -0.0178364 0)
(-0.115117 -0.0323514 0)
(-0.101102 -0.0442054 0)
(-0.0824558 -0.0513415 0)
(-0.0609669 -0.0521033 0)
(-0.0392016 -0.0458655 0)
(-0.0201591 -0.0336193 0)
(-0.0066797 -0.0182151 0)
(-0.000271739 -0.00409071 0)
(-0.0010661 0.0137237 0)
(-0.0106367 0.0351108 0)
(-0.0258161 0.0500494 0)
(-0.0444353 0.0589839 0)
(-0.0644692 0.0627276 0)
(-0.0846014 0.0619261 0)
(-0.103746 0.0569104 0)
(-0.120871 0.0477896 0)
(-0.134939 0.0346628 0)
(-0.1449 0.0178591 0)
(-0.149728 -0.00184947 0)
(-0.148511 -0.0230951 0)
(-0.140599 -0.0438498 0)
(-0.125837 -0.0614934 0)
(-0.104859 -0.0731008 0)
(-0.0793782 -0.0760349 0)
(-0.0523266 -0.068855 0)
(-0.0276173 -0.0523222 0)
(-0.00944713 -0.0299893 0)
(-0.000446948 -0.00784807 0)
(-0.00121335 0.019627 0)
(-0.0119889 0.048667 0)
(-0.0289461 0.0681478 0)
(-0.0496226 0.0794416 0)
(-0.071796 0.083977 0)
(-0.0941133 0.0827519 0)
(-0.115521 0.0762536 0)
(-0.13504 0.0646243 0)
(-0.151666 0.0479358 0)
(-0.164316 0.0264834 0)
(-0.171829 0.00105014 0)
(-0.173013 -0.0268739 0)
(-0.16679 -0.0549375 0)
(-0.152456 -0.0798927 0)
(-0.130089 -0.0978048 0)
(-0.101052 -0.104687 0)
(-0.0684332 -0.0976971 0)
(-0.037114 -0.0767659 0)
(-0.0130942 -0.04592 0)
(-0.000702477 -0.0131185 0)
(-0.00130236 0.0261268 0)
(-0.0128693 0.0635142 0)
(-0.0310228 0.0878846 0)
(-0.0530995 0.101692 0)
(-0.0767542 0.107106 0)
(-0.100645 0.105566 0)
(-0.123801 0.0977617 0)
(-0.145356 0.0838722 0)
(-0.164403 0.0638994 0)
(-0.179898 0.0380147 0)
(-0.190602 0.00687654 0)
(-0.195083 -0.028073 0)
(-0.191813 -0.0643318 0)
(-0.179426 -0.0981411 0)
(-0.157195 -0.124512 0)
(-0.125738 -0.137765 0)
(-0.0878662 -0.13292 0)
(-0.0492249 -0.108102 0)
(-0.018016 -0.0671784 0)
(-0.00110154 -0.0204355 0)
(-0.00132844 0.0329577 0)
(-0.0132314 0.0791032 0)
(-0.0319157 0.108578 0)
(-0.0546012 0.124999 0)
(-0.0788863 0.131377 0)
(-0.10348 0.129674 0)
(-0.127542 0.12084 0)
(-0.150375 0.105103 0)
(-0.171251 0.0823658 0)
(-0.189265 0.0525941 0)
(-0.203219 0.0161821 0)
(-0.21156 -0.0256747 0)
(-0.212403 -0.0705715 0)
(-0.203712 -0.114491 0)
(-0.183758 -0.151532 0)
(-0.151971 -0.174141 0)
(-0.110204 -0.174439 0)
(-0.0642489 -0.147338 0)
(-0.0246117 -0.0951778 0)
(-0.00172729 -0.0305504 0)
(-0.00129822 0.0398425 0)
(-0.013092 0.0948395 0)
(-0.0316035 0.129449 0)
(-0.0539973 0.148465 0)
(-0.0778663 0.155811 0)
(-0.102006 0.154061 0)
(-0.125744 0.144484 0)
(-0.148616 0.127397 0)
(-0.170158 0.102601 0)
(-0.189723 0.0698047 0)
(-0.206326 0.0290234 0)
(-0.218495 -0.0189922 0)
(-0.224199 -0.0722347 0)
(-0.22088 -0.126825 0)
(-0.205773 -0.176346 0)
(-0.176738 -0.211521 0)
(-0.133849 -0.221026 0)
(-0.0819316 -0.19486 0)
(-0.0332289 -0.131383 0)
(-0.00269359 -0.0444391 0)
(-0.00123958 0.0465404 0)
(-0.0125828 0.110152 0)
(-0.0302634 0.149675 0)
(-0.0514152 0.171053 0)
(-0.0736621 0.179194 0)
(-0.0959246 0.17737 0)
(-0.117747 0.16725 0)
(-0.138953 0.149296 0)
(-0.159421 0.123238 0)
(-0.178892 0.0885291 0)
(-0.196769 0.0447479 0)
(-0.211918 -0.00795415 0)
(-0.222475 -0.0682875 0)
(-0.225684 -0.132989 0)
(-0.217951 -0.195791 0)
(-0.195439 -0.24632 0)
(-0.155691 -0.269813 0)
(-0.101089 -0.249775 0)
(-0.0440362 -0.176944 0)
(-0.00415492 -0.0632912 0)
(-0.00121505 0.0529296 0)
(-0.0120151 0.124608 0)
(-0.0283707 0.168482 0)
(-0.0473663 0.191656 0)
(-0.0666918 0.200127 0)
(-0.0854623 0.197963 0)
(-0.103506 0.187316 0)
(-0.120995 0.16886 0)
(-0.138217 0.142319 0)
(-0.155384 0.106935 0)
(-0.172444 0.0618667 0)
(-0.188846 0.00659595 0)
(-0.203236 -0.05852 0)
(-0.213113 -0.131343 0)
(-0.214564 -0.206601 0)
(-0.202332 -0.273945 0)
(-0.171068 -0.316052 0)
(-0.119226 -0.309174 0)
(-0.0567771 -0.232086 0)
(-0.00630881 -0.0884499 0)
(-0.00134337 0.0591362 0)
(-0.0119632 0.138068 0)
(-0.0267989 0.185257 0)
(-0.0428404 0.209171 0)
(-0.0579109 0.217102 0)
(-0.0714642 0.214024 0)
(-0.0837305 0.202628 0)
(-0.0952988 0.183854 0)
(-0.106905 0.157486 0)
(-0.119276 0.12264 0)
(-0.132964 0.0781356 0)
(-0.148138 0.022835 0)
(-0.164258 -0.0438962 0)
(-0.1796 -0.121407 0)
(-0.190644 -0.206252 0)
(-0.191485 -0.289591 0)
(-0.174194 -0.353431 0)
(-0.132344 -0.36761 0)
(-0.0703861 -0.29522 0)
(-0.00937695 -0.12123 0)
(-0.00184005 0.0657321 0)
(-0.013383 0.150888 0)
(-0.0269048 0.199651 0)
(-0.0393067 0.222553 0)
(-0.0487297 0.228561 0)
(-0.0552476 0.223656 0)
(-0.059686 0.211061 0)
(-0.0631401 0.191973 0)
(-0.0668078 0.166268 0)
(-0.0718977 0.133013 0)
(-0.0795357 0.090821 0)
(-0.0906209 0.0380943 0)
(-0.105563 -0.0266763 0)
(-0.123811 -0.104358 0)
(-0.143035 -0.19388 0)
(-0.157879 -0.289423 0)
(-0.158979 -0.375058 0)
(-0.135096 -0.417162 0)
(-0.0825098 -0.361905 0)
(-0.0135129 -0.162453 0)
(-0.00307746 0.0740283 0)
(-0.0177602 0.164112 0)
(-0.0305104 0.21158 0)
(-0.0384457 0.230733 0)
(-0.0405121 0.232838 0)
(-0.0379114 0.224893 0)
(-0.032346 0.210503 0)
(-0.0255154 0.191003 0)
(-0.019065 0.166312 0)
(-0.0146049 0.135493 0)
(-0.0137159 0.0970727 0)
(-0.0179073 0.0492206 0)
(-0.0284816 -0.0101292 0)
(-0.0462041 -0.0830451 0)
(-0.070538 -0.170835 0)
(-0.0980058 -0.271736 0)
(-0.11974 -0.374912 0)
(-0.121121 -0.448332 0)
(-0.0890021 -0.424186 0)
(-0.0184923 -0.211647 0)
(-0.00557305 0.0865715 0)
(-0.027098 0.179573 0)
(-0.0393482 0.220864 0)
(-0.0409219 0.232157 0)
(-0.0328129 0.227776 0)
(-0.0182019 0.215429 0)
(3.32912e-06 0.198694 0)
(0.0194401 0.17876 0)
(0.0380812 0.15545 0)
(0.0540451 0.127797 0)
(0.0654665 0.094338 0)
(0.0704238 0.0532317 0)
(0.0669319 0.00225776 0)
(0.0530674 -0.061254 0)
(0.0274321 -0.14035 0)
(-0.0093566 -0.237388 0)
(-0.0512397 -0.349073 0)
(-0.0831375 -0.451497 0)
(-0.0834344 -0.471061 0)
(-0.0231132 -0.266679 0)
(-0.00989238 0.108715 0)
(-0.0429541 0.199595 0)
(-0.0521491 0.225769 0)
(-0.0416556 0.22332 0)
(-0.0176776 0.209611 0)
(0.0135147 0.191858 0)
(0.0477441 0.172754 0)
(0.082178 0.152862 0)
(0.114651 0.131671 0)
(0.143261 0.108118 0)
(0.166104 0.0808094 0)
(0.181102 0.0480827 0)
(0.185885 0.00792927 0)
(0.177749 -0.0422543 0)
(0.153745 -0.106152 0)
(0.1115 -0.18906 0)
(0.0523216 -0.295954 0)
(-0.0125155 -0.417705 0)
(-0.0567521 -0.488917 0)
(-0.0246552 -0.324009 0)
(-0.0178092 0.151677 0)
(-0.061285 0.223639 0)
(-0.0522327 0.217681 0)
(-0.014291 0.194972 0)
(0.0355199 0.171104 0)
(0.0887504 0.149126 0)
(0.141413 0.12943 0)
(0.191221 0.111425 0)
(0.236576 0.0940719 0)
(0.276077 0.0761886 0)
(0.308193 0.0565412 0)
(0.331053 0.0338052 0)
(0.342279 0.00646342 0)
(0.338876 -0.027468 0)
(0.317036 -0.0711488 0)
(0.272175 -0.130516 0)
(0.200096 -0.216477 0)
(0.102968 -0.338344 0)
(0.00434771 -0.456776 0)
(-0.0159644 -0.369311 0)
(-0.0242204 0.208273 0)
(-0.0379096 0.230364 0)
(0.0372827 0.176541 0)
(0.125075 0.136866 0)
(0.205861 0.109076 0)
(0.278055 0.0882334 0)
(0.342321 0.0721386 0)
(0.398946 0.0592015 0)
(0.447975 0.0480407 0)
(0.489178 0.0375245 0)
(0.521879 0.0267113 0)
(0.544847 0.0147532 0)
(0.556197 0.000777088 0)
(0.553277 -0.0162892 0)
(0.532272 -0.0382841 0)
(0.487718 -0.0691476 0)
(0.411125 -0.119099 0)
(0.290876 -0.209352 0)
(0.133125 -0.338289 0)
(0.0387707 -0.340363 0)
(0.241888 0.109135 0)
(0.313461 0.0971196 0)
(0.444328 0.0569684 0)
(0.549639 0.0351069 0)
(0.624073 0.0237358 0)
(0.67962 0.0167055 0)
(0.723499 0.0119761 0)
(0.758808 0.00869115 0)
(0.787098 0.00625366 0)
(0.809165 0.00423186 0)
(0.825187 0.00233106 0)
(0.834796 0.000343516 0)
(0.837127 -0.0019072 0)
(0.830762 -0.0045891 0)
(0.813397 -0.00802771 0)
(0.78114 -0.0128854 0)
(0.725697 -0.0212313 0)
(0.629866 -0.0380944 0)
(0.459269 -0.0855512 0)
(0.304894 -0.125698 0)
)
;

boundaryField
{
    movingWall
    {
        type            fixedValue;
        value           uniform (1 0 0);
    }
    fixedWalls
    {
        type            fixedValue;
        value           uniform (0 0 0);
    }
    frontAndBack
    {
        type            empty;
    }
}


// ************************************************************************* //
