/*--------------------------------*- C++ -*----------------------------------*\
  =========                 |
  \\      /  F ield         | OpenFOAM: The Open Source CFD Toolbox
   \\    /   O peration     | Website:  https://openfoam.org
    \\  /    A nd           | Version:  13
     \\/     M anipulation  |
\*---------------------------------------------------------------------------*/
FoamFile
{
    format      ascii;
    class       volVectorField;
    location    "41";
    object      U_0;
}
// * * * * * * * * * * * * * * * * * * * * * * * * * * * * * * * * * * * * * //

dimensions      [0 1 -1 0 0 0 0];

internalField   nonuniform List<vector> 
400
(
(0.000182431 -0.000186316 0)
(-0.000138236 3.03187e-05 0)
(-0.00153328 0.000268434 0)
(-0.00378402 0.000419422 0)
(-0.00654267 0.000499223 0)
(-0.009508 0.000529625 0)
(-0.0124301 0.000520395 0)
(-0.0150754 0.000470472 0)
(-0.0172034 0.000373084 0)
(-0.0185675 0.000222827 0)
(-0.0189422 2.29485e-05 0)
(-0.0181722 -0.000209138 0)
(-0.0162326 -0.000439469 0)
(-0.013279 -0.000621476 0)
(-0.00966779 -0.000706527 0)
(-0.00592575 -0.000659687 0)
(-0.00265916 -0.000474781 0)
(-0.000409677 -0.000182359 0)
(0.000538467 0.000136588 0)
(0.000309186 0.000302218 0)
(-4.74313e-05 0.000137173 0)
(-0.00207714 0.00193091 0)
(-0.00642651 0.00375644 0)
(-0.0125699 0.00501873 0)
(-0.0197497 0.00568314 0)
(-0.0272952 0.00582609 0)
(-0.0346017 0.00549815 0)
(-0.0410873 0.00470575 0)
(-0.0461727 0.00343912 0)
(-0.0492998 0.00171766 0)
(-0.0499961 -0.000365908 0)
(-0.0479717 -0.00261719 0)
(-0.0432276 -0.00473923 0)
(-0.0361427 -0.00636912 0)
(-0.0275014 -0.00715422 0)
(-0.0184298 -0.00685744 0)
(-0.010217 -0.00546361 0)
(-0.00403254 -0.00325464 0)
(-0.000577807 -0.000862171 0)
(0.000221047 0.000587656 0)
(-0.000353117 0.0017156 0)
(-0.00448057 0.00645864 0)
(-0.0118552 0.0106615 0)
(-0.0215731 0.0135034 0)
(-0.0325381 0.0149356 0)
(-0.0438386 0.0150856 0)
(-0.0546365 0.0140425 0)
(-0.064116 0.0118288 0)
(-0.0714752 0.0084579 0)
(-0.0759628 0.00402448 0)
(-0.0769596 -0.00121101 0)
(-0.0740942 -0.0067724 0)
(-0.0673685 -0.011974 0)
(-0.0572622 -0.0159994 0)
(-0.044779 -0.0180596 0)
(-0.0313906 -0.0176145 0)
(-0.0188378 -0.0146087 0)
(-0.00878653 -0.0096444 0)
(-0.00241842 -0.00405521 0)
(3.46913e-05 2.22911e-05 0)
(-0.000630131 0.00458938 0)
(-0.00680153 0.0136579 0)
(-0.0170784 0.0208969 0)
(-0.0301105 0.0255998 0)
(-0.0444608 0.0278314 0)
(-0.0590369 0.0278105 0)
(-0.0728549 0.0256765 0)
(-0.0849576 0.0214757 0)
(-0.0944066 0.0152601 0)
(-0.10032 0.00722586 0)
(-0.101956 -0.00216274 0)
(-0.0988295 -0.0120999 0)
(-0.0908494 -0.0214452 0)
(-0.0784508 -0.0288351 0)
(-0.0626925 -0.0329182 0)
(-0.0452605 -0.0327072 0)
(-0.0283048 -0.0279854 0)
(-0.0140729 -0.0196342 0)
(-0.00442962 -0.00974429 0)
(-0.000125617 -0.00151807 0)
(-0.000868803 0.00864241 0)
(-0.00887803 0.0233014 0)
(-0.0217902 0.0341328 0)
(-0.0378162 0.0408693 0)
(-0.0551996 0.0438627 0)
(-0.0727126 0.0434991 0)
(-0.0892914 0.0399951 0)
(-0.103911 0.0334272 0)
(-0.115557 0.0238825 0)
(-0.123252 0.0116473 0)
(-0.126118 -0.00262725 0)
(-0.12349 -0.0178204 0)
(-0.115059 -0.0323278 0)
(-0.101053 -0.044177 0)
(-0.0824182 -0.0513118 0)
(-0.0609404 -0.0520761 0)
(-0.0391857 -0.0458444 0)
(-0.0201516 -0.0336064 0)
(-0.00667759 -0.0182101 0)
(-0.000271923 -0.00409122 0)
(-0.00106551 0.0137144 0)
(-0.0106293 0.0350881 0)
(-0.0257993 0.0500179 0)
(-0.0444074 0.0589476 0)
(-0.0644299 0.0626901 0)
(-0.0845513 0.0618902 0)
(-0.103686 0.056879 0)
(-0.120804 0.0477654 0)
(-0.134866 0.0346482 0)
(-0.144825 0.017856 0)
(-0.149654 -0.00184034 0)
(-0.14844 -0.0230741 0)
(-0.140534 -0.0438186 0)
(-0.125781 -0.0614551 0)
(-0.104813 -0.0730597 0)
(-0.0793449 -0.0759961 0)
(-0.0523054 -0.0688234 0)
(-0.0276068 -0.0523013 0)
(-0.0094438 -0.0299797 0)
(-0.00044709 -0.00784737 0)
(-0.00121272 0.0196135 0)
(-0.0119813 0.0486358 0)
(-0.028929 0.0681054 0)
(-0.0495942 0.0793938 0)
(-0.0717564 0.0839282 0)
(-0.0940631 0.0827057 0)
(-0.115462 0.0762135 0)
(-0.134974 0.0645935 0)
(-0.151594 0.0479172 0)
(-0.164241 0.0264789 0)
(-0.171754 0.00106062 0)
(-0.17294 -0.0268487 0)
(-0.166722 -0.0548994 0)
(-0.152396 -0.079845 0)
(-0.130039 -0.0977523 0)
(-0.101013 -0.104635 0)
(-0.0684074 -0.0976535 0)
(-0.0371005 -0.0767352 0)
(-0.0130895 -0.0459042 0)
(-0.000702551 -0.0131159 0)
(-0.0013018 0.0261093 0)
(-0.0128625 0.0634748 0)
(-0.0310073 0.0878318 0)
(-0.0530737 0.101633 0)
(-0.0767182 0.107046 0)
(-0.100599 0.10551 0)
(-0.123748 0.0977136 0)
(-0.145296 0.0838352 0)
(-0.164338 0.0638766 0)
(-0.179831 0.0380083 0)
(-0.190534 0.00688746 0)
(-0.195016 -0.028045 0)
(-0.191748 -0.0642885 0)
(-0.179367 -0.0980856 0)
(-0.157144 -0.12445 0)
(-0.125697 -0.137701 0)
(-0.087837 -0.132864 0)
(-0.0492086 -0.10806 0)
(-0.01801 -0.067155 0)
(-0.0011015 -0.0204304 0)
(-0.00132806 0.0329369 0)
(-0.0132263 0.0790569 0)
(-0.0319037 0.108516 0)
(-0.0545811 0.124931 0)
(-0.0788582 0.131308 0)
(-0.103445 0.12961 0)
(-0.1275 0.120785 0)
(-0.150329 0.105061 0)
(-0.171202 0.0823396 0)
(-0.189213 0.0525859 0)
(-0.203166 0.0161928 0)
(-0.211508 -0.0256455 0)
(-0.212351 -0.0705253 0)
(-0.203662 -0.114431 0)
(-0.183713 -0.151462 0)
(-0.151932 -0.174067 0)
(-0.110174 -0.17437 0)
(-0.0642309 -0.147284 0)
(-0.0246044 -0.0951456 0)
(-0.00172707 -0.0305419 0)
(-0.00129811 0.0398194 0)
(-0.0130894 0.0947884 0)
(-0.0315969 0.129381 0)
(-0.0539857 0.148389 0)
(-0.0778497 0.155736 0)
(-0.101985 0.153991 0)
(-0.12572 0.144425 0)
(-0.14859 0.127352 0)
(-0.17013 0.102573 0)
(-0.189695 0.0697955 0)
(-0.206297 0.0290337 0)
(-0.218466 -0.018963 0)
(-0.224169 -0.0721879 0)
(-0.220849 -0.126764 0)
(-0.205741 -0.176273 0)
(-0.176708 -0.211442 0)
(-0.133823 -0.220949 0)
(-0.081914 -0.194796 0)
(-0.0332208 -0.131341 0)
(-0.00269311 -0.0444266 0)
(-0.00123979 0.0465167 0)
(-0.0125833 0.110099 0)
(-0.0302633 0.149604 0)
(-0.051414 0.170975 0)
(-0.0736597 0.179116 0)
(-0.0959214 0.177298 0)
(-0.117744 0.16719 0)
(-0.13895 0.14925 0)
(-0.15942 0.123211 0)
(-0.178892 0.0885205 0)
(-0.19677 0.0447584 0)
(-0.211918 -0.00792548 0)
(-0.222474 -0.0682424 0)
(-0.22568 -0.132929 0)
(-0.217942 -0.19572 0)
(-0.195425 -0.246241 0)
(-0.155675 -0.269732 0)
(-0.101075 -0.249704 0)
(-0.0440283 -0.176894 0)
(-0.00415409 -0.0632744 0)
(-0.00121558 0.0529072 0)
(-0.0120189 0.124556 0)
(-0.0283776 0.168412 0)
(-0.0473765 0.191578 0)
(-0.0667049 0.20005 0)
(-0.0854784 0.197893 0)
(-0.103526 0.187258 0)
(-0.121018 0.168817 0)
(-0.138243 0.142294 0)
(-0.155414 0.106929 0)
(-0.172475 0.0618784 0)
(-0.188878 0.00662407 0)
(-0.203266 -0.0584777 0)
(-0.213138 -0.131289 0)
(-0.214581 -0.206537 0)
(-0.202339 -0.273872 0)
(-0.171067 -0.315975 0)
(-0.119219 -0.309101 0)
(-0.056771 -0.232031 0)
(-0.00630763 -0.088429 0)
(-0.00134416 0.0591168 0)
(-0.01197 0.138022 0)
(-0.0268127 0.185193 0)
(-0.0428615 0.209099 0)
(-0.057939 0.21703 0)
(-0.0714988 0.213958 0)
(-0.0837712 0.202574 0)
(-0.0953451 0.183816 0)
(-0.106957 0.157465 0)
(-0.119331 0.122637 0)
(-0.133021 0.0781493 0)
(-0.148196 0.0228629 0)
(-0.164314 -0.0438571 0)
(-0.179651 -0.12136 0)
(-0.190685 -0.206197 0)
(-0.191515 -0.289529 0)
(-0.17421 -0.353364 0)
(-0.132348 -0.367543 0)
(-0.0703836 -0.295166 0)
(-0.00937548 -0.121206 0)
(-0.00184101 0.0657172 0)
(-0.0133922 0.150849 0)
(-0.0269241 0.199596 0)
(-0.039337 0.22249 0)
(-0.0487704 0.228498 0)
(-0.0552976 0.223599 0)
(-0.0597441 0.211015 0)
(-0.0632049 0.191942 0)
(-0.0668777 0.166252 0)
(-0.071971 0.133014 0)
(-0.0796106 0.0908364 0)
(-0.0906955 0.0381216 0)
(-0.105635 -0.0266406 0)
(-0.123878 -0.104317 0)
(-0.143094 -0.193836 0)
(-0.157925 -0.289376 0)
(-0.15901 -0.375006 0)
(-0.13511 -0.417107 0)
(-0.0825124 -0.361856 0)
(-0.0135114 -0.162428 0)
(-0.00307846 0.0740191 0)
(-0.0177708 0.164084 0)
(-0.0305331 0.211537 0)
(-0.038482 0.230682 0)
(-0.0405612 0.232786 0)
(-0.0379717 0.224846 0)
(-0.0324154 0.210465 0)
(-0.0255915 0.190977 0)
(-0.0191453 0.166301 0)
(-0.014687 0.135496 0)
(-0.0137977 0.0970883 0)
(-0.0179869 0.0492462 0)
(-0.0285576 -0.0100973 0)
(-0.0462749 -0.0830104 0)
(-0.0706016 -0.170801 0)
(-0.0980593 -0.271702 0)
(-0.119779 -0.374876 0)
(-0.121144 -0.448293 0)
(-0.08901 -0.424148 0)
(-0.0184915 -0.211624 0)
(-0.00557385 0.0865682 0)
(-0.0271082 0.179556 0)
(-0.0393709 0.220835 0)
(-0.0409591 0.23212 0)
(-0.0328639 0.227737 0)
(-0.0182649 0.215392 0)
(-6.89878e-05 0.198664 0)
(0.0193616 0.178739 0)
(0.0379996 0.155441 0)
(0.0539634 0.1278 0)
(0.0653871 0.0943514 0)
(0.0703485 0.0532536 0)
(0.0668619 0.00228482 0)
(0.0530033 -0.0612254 0)
(0.0273745 -0.140323 0)
(-0.00940645 -0.237364 0)
(-0.0512792 -0.349051 0)
(-0.0831636 -0.451474 0)
(-0.0834461 -0.471036 0)
(-0.0231137 -0.266661 0)
(-0.00989258 0.108717 0)
(-0.0429615 0.199588 0)
(-0.0521671 0.225753 0)
(-0.0416867 0.223297 0)
(-0.0177218 0.209584 0)
(0.0134589 0.191831 0)
(0.0476791 0.172731 0)
(0.082107 0.152846 0)
(0.114578 0.131663 0)
(0.143188 0.108118 0)
(0.166033 0.0808189 0)
(0.181037 0.0480991 0)
(0.185826 0.00794998 0)
(0.177697 -0.0422325 0)
(0.1537 -0.106132 0)
(0.111461 -0.189044 0)
(0.0522898 -0.295942 0)
(-0.0125383 -0.417695 0)
(-0.0567641 -0.488905 0)
(-0.0246566 -0.323998 0)
(-0.0178083 0.151681 0)
(-0.0612871 0.22364 0)
(-0.0522412 0.217676 0)
(-0.0143088 0.19496 0)
(0.0354915 0.171089 0)
(0.0887116 0.149109 0)
(0.141366 0.129415 0)
(0.191167 0.111414 0)
(0.236518 0.0940654 0)
(0.276019 0.0761881 0)
(0.308136 0.0565466 0)
(0.331001 0.0338156 0)
(0.342233 0.00647687 0)
(0.338837 -0.0274538 0)
(0.317005 -0.0711364 0)
(0.27215 -0.130507 0)
(0.200076 -0.216472 0)
(0.102954 -0.338341 0)
(0.00433889 -0.456773 0)
(-0.0159663 -0.369306 0)
(-0.0242189 0.208276 0)
(-0.0379072 0.230368 0)
(0.0372838 0.176541 0)
(0.125072 0.136862 0)
(0.205851 0.109069 0)
(0.278037 0.0882254 0)
(0.342296 0.0721307 0)
(0.398914 0.0591953 0)
(0.447938 0.0480372 0)
(0.489138 0.0375243 0)
(0.521841 0.0267144 0)
(0.544812 0.0147589 0)
(0.556167 0.00078419 0)
(0.553254 -0.016282 0)
(0.532256 -0.0382782 0)
(0.487707 -0.0691438 0)
(0.411119 -0.119097 0)
(0.290871 -0.209352 0)
(0.133122 -0.338289 0)
(0.0387688 -0.340362 0)
(0.241888 0.109136 0)
(0.313464 0.0971211 0)
(0.444333 0.056969 0)
(0.549643 0.0351066 0)
(0.624073 0.0237349 0)
(0.679615 0.0167044 0)
(0.72349 0.0119751 0)
(0.758795 0.0086907 0)
(0.787082 0.00625385 0)
(0.809148 0.00423263 0)
(0.825172 0.00233216 0)
(0.834784 0.000344741 0)
(0.837119 -0.0019061 0)
(0.830758 -0.00458824 0)
(0.813396 -0.00802726 0)
(0.781141 -0.0128857 0)
(0.725699 -0.0212322 0)
(0.629868 -0.0380953 0)
(0.459269 -0.0855522 0)
(0.304893 -0.125698 0)
)
;

boundaryField
{
    movingWall
    {
        type            calculated;
        value           uniform (1 0 0);
    }
    fixedWalls
    {
        type            calculated;
        value           uniform (0 0 0);
    }
    frontAndBack
    {
        type            empty;
    }
}


// ************************************************************************* //
