/*--------------------------------*- C++ -*----------------------------------*\
  =========                 |
  \\      /  F ield         | OpenFOAM: The Open Source CFD Toolbox
   \\    /   O peration     | Website:  https://openfoam.org
    \\  /    A nd           | Version:  13
     \\/     M anipulation  |
\*---------------------------------------------------------------------------*/
FoamFile
{
    format      ascii;
    class       volScalarField;
    location    "43";
    object      p;
}
// * * * * * * * * * * * * * * * * * * * * * * * * * * * * * * * * * * * * * //

dimensions      [0 2 -2 0 0 0 0];

internalField   nonuniform List<scalar> 
400
(
3.23702e-08
-0.00057251
-0.00121612
-0.00171896
-0.00195927
-0.00188479
-0.00147062
-0.000705665
0.000401191
0.00180586
0.00341459
0.0050749
0.00659093
0.00775099
0.00837969
0.00839552
0.00785524
0.0069688
0.00604791
0.00549423
0.000569872
-2.03987e-05
-0.000569825
-0.000957188
-0.00113212
-0.00106205
-0.000726081
-0.000109377
0.000788641
0.00193934
0.00326969
0.00466002
0.00594059
0.0069297
0.00747414
0.00750169
0.00705912
0.00631874
0.00554316
0.00497253
0.00124561
0.000492926
-8.68137e-05
-0.000441515
-0.000606293
-0.000576394
-0.000337369
0.00013248
0.000849569
0.00180677
0.00295474
0.00419169
0.00536433
0.00629372
0.00681916
0.00685281
0.00642066
0.00566809
0.00480884
0.00403709
0.00174047
0.000763621
7.36076e-05
-0.000322044
-0.000537262
-0.000592864
-0.000478336
-0.000160259
0.000399919
0.00122198
0.00228158
0.00349277
0.00470162
0.00570965
0.00631932
0.00639807
0.00593343
0.00505048
0.00394832
0.00284434
0.00179535
0.000595613
-0.000227761
-0.00070489
-0.00101825
-0.00120736
-0.00125948
-0.0011231
-0.000730593
-2.79224e-05
0.000991664
0.00226352
0.00362999
0.00486118
0.00569861
0.00593226
0.00548033
0.00443541
0.00299986
0.00146201
0.00119463
-0.000203145
-0.00116337
-0.00175276
-0.00221148
-0.00259076
-0.00286937
-0.00297129
-0.00279201
-0.002233
-0.00124414
0.000150454
0.00179279
0.00341978
0.00469017
0.00527467
0.00497184
0.00380562
0.00197895
-0.000104116
-0.000241652
-0.00180018
-0.00289235
-0.00362228
-0.00427776
-0.0049167
-0.00550515
-0.00593762
-0.00606463
-0.00572851
-0.00480698
-0.00328524
-0.0012704
0.000946637
0.00292623
0.00416981
0.00427921
0.00313549
0.000902553
-0.00185632
-0.00265197
-0.00432639
-0.00554132
-0.00643935
-0.00734716
-0.00832778
-0.00933394
-0.0102288
-0.0108113
-0.0108505
-0.0101336
-0.00853905
-0.00610711
-0.00311231
-8.64783e-05
0.00225499
0.0032126
0.00239523
-0.000177423
-0.00375301
-0.0061214
-0.00786172
-0.00918477
-0.0102718
-0.011483
-0.0128894
-0.0144345
-0.0159529
-0.0171897
-0.0178277
-0.0175354
-0.0160428
-0.0132531
-0.00935756
-0.00493608
-0.000941465
0.00150803
0.00155453
-0.00113721
-0.00564686
-0.0106716
-0.0124237
-0.0138275
-0.0151021
-0.0166422
-0.0185358
-0.0207272
-0.0230305
-0.0251405
-0.0266492
-0.0270841
-0.0259776
-0.0230343
-0.0182542
-0.0121678
-0.0059222
-0.00114235
0.000602961
-0.00173145
-0.00719521
-0.0162606
-0.0179654
-0.0193957
-0.0208062
-0.0226415
-0.0250234
-0.0279114
-0.0311115
-0.0342775
-0.0369139
-0.0383954
-0.0380067
-0.0352842
-0.0298336
-0.0220052
-0.0130065
-0.00495988
-0.000375637
-0.0015161
-0.00772074
-0.022803
-0.0243901
-0.0257427
-0.0271484
-0.0291435
-0.0319107
-0.0354424
-0.0395494
-0.0438549
-0.0477847
-0.05058
-0.0513772
-0.0491635
-0.043394
-0.0339889
-0.0219777
-0.009806
-0.00102484
0.000279971
-0.00600007
-0.0302226
-0.0315863
-0.0326696
-0.033792
-0.0356681
-0.0385799
-0.042569
-0.047455
-0.0528343
-0.0580627
-0.0622511
-0.0643106
-0.0630223
-0.0573321
-0.0466929
-0.031705
-0.0148012
-0.00041715
0.00496553
2.27306e-05
-0.03856
-0.0394895
-0.0399613
-0.040327
-0.041635
-0.0443096
-0.0484456
-0.0538594
-0.0601059
-0.0664655
-0.0719295
-0.0752216
-0.0748704
-0.0694214
-0.0578071
-0.0400022
-0.0180233
0.00327947
0.0146985
0.0135556
-0.0481748
-0.048157
-0.0474035
-0.0462842
-0.0464121
-0.0483713
-0.0522815
-0.0579132
-0.0647394
-0.0719354
-0.0783607
-0.0825613
-0.0828323
-0.0773739
-0.0646453
-0.043937
-0.0165435
0.0130188
0.032931
0.0392807
-0.060235
-0.0579577
-0.0548672
-0.0512135
-0.0494272
-0.0501785
-0.0535204
-0.0590937
-0.0662201
-0.0739188
-0.0808795
-0.0854535
-0.085707
-0.0795199
-0.064942
-0.0406113
-0.00697893
0.0328167
0.0647937
0.0836767
-0.0774815
-0.0694733
-0.0620875
-0.0545495
-0.050139
-0.0493251
-0.0519045
-0.0572611
-0.0644863
-0.072385
-0.07944
-0.0837784
-0.0832185
-0.075283
-0.0576215
-0.0282113
0.0133524
0.0666609
0.115752
0.154807
-0.108926
-0.0850402
-0.0697734
-0.0563916
-0.0485411
-0.0458812
-0.0476243
-0.0527151
-0.0599173
-0.0677771
-0.0745524
-0.0781401
-0.0761045
-0.0655427
-0.0436433
-0.00744515
0.044743
0.114933
0.188078
0.263281
-0.168693
-0.100746
-0.0730932
-0.0522882
-0.0413103
-0.0376998
-0.0394421
-0.0448655
-0.0524159
-0.060447
-0.067074
-0.0700479
-0.0666876
-0.0537885
-0.0278899
0.0154098
0.0800715
0.17276
0.285854
0.445985
-0.402754
-0.139031
-0.0734592
-0.0447302
-0.0305719
-0.0266176
-0.0290857
-0.0353736
-0.0436542
-0.0522075
-0.0591241
-0.0621457
-0.0586176
-0.0452141
-0.0174509
0.0310786
0.108495
0.236657
0.427487
0.79368
)
;

boundaryField
{
    movingWall
    {
        type            zeroGradient;
    }
    fixedWalls
    {
        type            zeroGradient;
    }
    frontAndBack
    {
        type            empty;
    }
}


// ************************************************************************* //
