/*--------------------------------*- C++ -*----------------------------------*\
  =========                 |
  \\      /  F ield         | OpenFOAM: The Open Source CFD Toolbox
   \\    /   O peration     | Website:  https://openfoam.org
    \\  /    A nd           | Version:  13
     \\/     M anipulation  |
\*---------------------------------------------------------------------------*/
FoamFile
{
    format      ascii;
    class       volScalarField;
    location    "43";
    object      p;
}
// * * * * * * * * * * * * * * * * * * * * * * * * * * * * * * * * * * * * * //

dimensions      [0 2 -2 0 0 0 0];

internalField   nonuniform List<scalar> 
400
(
-1.31431e-09
-0.000529487
-0.00117563
-0.00167607
-0.00191105
-0.00183117
-0.0014119
-0.000642273
0.000468677
0.00187672
0.00348742
0.00514989
0.00666776
0.00783087
0.00846571
0.00849196
0.00796573
0.00709351
0.00620779
0.00565425
0.000536609
-1.12078e-05
-0.000581914
-0.000981736
-0.00115842
-0.00108509
-0.000740547
-0.000109661
0.000807984
0.00198328
0.00334262
0.00476086
0.00606854
0.00708032
0.00764078
0.00767658
0.00723474
0.00648769
0.00569707
0.00513394
0.00120805
0.000522661
-8.0392e-05
-0.00044527
-0.000606797
-0.00057248
-0.000326931
0.000152541
0.000882496
0.00185563
0.0030223
0.00427885
0.00547071
0.00641703
0.00695608
0.00699996
0.00657533
0.00582271
0.00494741
0.00421394
0.00169049
0.000806661
8.59426e-05
-0.000322264
-0.000531422
-0.000581903
-0.000461836
-0.000136231
0.000433868
0.00126833
0.00234287
0.00357001
0.00479538
0.00581883
0.00644218
0.00653346
0.00608107
0.00519852
0.00407147
0.00303596
0.00172807
0.000643629
-0.00022076
-0.000716405
-0.00102372
-0.00120827
-0.0012556
-0.00111222
-0.000709838
5.90865e-06
0.00104269
0.002333
0.00371958
0.00496979
0.00582384
0.00607239
0.00563489
0.00458537
0.0031097
0.00167629
0.0011087
-0.00015443
-0.00116384
-0.00177665
-0.00222969
-0.00260552
-0.00288083
-0.0029772
-0.00278914
-0.00221711
-0.00120807
0.000205016
0.0018709
0.00352154
0.00481314
0.00541694
0.005133
0.00395756
0.00207388
0.000144378
-0.000345811
-0.00175528
-0.00290281
-0.00365995
-0.00431035
-0.00494742
-0.0055347
-0.005964
-0.0060845
-0.00573746
-0.0048029
-0.00325548
-0.00121263
0.00103392
0.00304128
0.00431127
0.00444731
0.00328942
0.000978854
-0.00155789
-0.00277239
-0.00428957
-0.00556431
-0.00649231
-0.0073959
-0.00837637
-0.00938365
-0.010278
-0.0108569
-0.0108875
-0.0101569
-0.00853974
-0.00607721
-0.0030473
1.4085e-05
0.00239206
0.0033885
0.00255064
-0.00012623
-0.00338238
-0.00625469
-0.00783631
-0.00922169
-0.0103405
-0.0115483
-0.0129559
-0.014504
-0.0160244
-0.0172605
-0.0178933
-0.017589
-0.0160762
-0.0132552
-0.00932093
-0.00485664
-0.000813258
0.00169259
0.00170952
-0.00112096
-0.00517334
-0.0108134
-0.012412
-0.0138787
-0.0151861
-0.0167233
-0.0186185
-0.0208133
-0.0231194
-0.0252301
-0.0267348
-0.027158
-0.026038
-0.0230635
-0.0182444
-0.0121108
-0.00580416
-0.00094599
0.00075392
-0.00176326
-0.0065802
-0.0164065
-0.017969
-0.0194612
-0.0209058
-0.0227376
-0.0251196
-0.0280094
-0.031211
-0.0343769
-0.0370089
-0.0384824
-0.0381157
-0.0353319
-0.0298374
-0.0219593
-0.0128893
-0.00474169
-0.000235416
-0.00161096
-0.00692593
-0.0229482
-0.024411
-0.0258231
-0.0272658
-0.0292551
-0.0320183
-0.0355477
-0.0396516
-0.0439521
-0.0478733
-0.0506519
-0.0513925
-0.0491818
-0.0433753
-0.0339228
-0.021834
-0.00954435
-0.000910527
0.000111186
-0.00501151
-0.0303589
-0.0316306
-0.0327686
-0.0339339
-0.0357983
-0.0386991
-0.0426798
-0.0475577
-0.0529268
-0.0581409
-0.0623091
-0.0643316
-0.0630058
-0.0572665
-0.0465733
-0.0314982
-0.0144656
-0.000353571
0.00474636
0.00116342
-0.0386675
-0.0395745
-0.0400856
-0.0405021
-0.0417858
-0.0444392
-0.0485608
-0.0539623
-0.0601947
-0.0665337
-0.0719671
-0.0752134
-0.0748066
-0.0692952
-0.0576138
-0.0397095
-0.0175873
0.00327611
0.0145592
0.0147578
-0.0482145
-0.0483463
-0.0475796
-0.0465112
-0.046588
-0.048512
-0.052403
-0.0580213
-0.0648332
-0.0720066
-0.0783936
-0.0825365
-0.082731
-0.0771922
-0.0643785
-0.0435667
-0.0160066
0.0128991
0.0329967
0.0403088
-0.0599987
-0.058374
-0.0551175
-0.0514871
-0.0496116
-0.0503209
-0.0536463
-0.0592093
-0.0663241
-0.0739994
-0.0809164
-0.0854209
-0.0855687
-0.0792656
-0.0645568
-0.0401175
-0.00630101
0.032272
0.0644675
0.0832596
-0.0762676
-0.0707253
-0.0626692
-0.054984
-0.0503979
-0.0495204
-0.0520749
-0.0574169
-0.0646252
-0.0724926
-0.0794894
-0.0837341
-0.083014
-0.0748918
-0.0569749
-0.0273502
0.0145497
0.0654733
0.11437
0.15017
-0.104176
-0.0879444
-0.0699914
-0.0562768
-0.0483776
-0.0457831
-0.047587
-0.0527249
-0.059954
-0.0678151
-0.0745604
-0.0780815
-0.0758898
-0.0651437
-0.0428542
-0.00620214
0.0467557
0.115321
0.191477
0.258286
-0.17598
-0.114893
-0.0736132
-0.0518911
-0.041182
-0.0375761
-0.039286
-0.0447373
-0.0523199
-0.0603631
-0.0669826
-0.0699278
-0.0665204
-0.0535826
-0.0273872
0.0164043
0.0827324
0.177376
0.305422
0.452683
-0.35585
-0.155257
-0.0704338
-0.0427823
-0.0313505
-0.027603
-0.0297824
-0.0359661
-0.0442124
-0.0527213
-0.0595798
-0.0625269
-0.0588349
-0.0451731
-0.0172485
0.03081
0.108422
0.233356
0.434803
0.735869
)
;

boundaryField
{
    movingWall
    {
        type            zeroGradient;
    }
    fixedWalls
    {
        type            zeroGradient;
    }
    frontAndBack
    {
        type            empty;
    }
}


// ************************************************************************* //
