/*--------------------------------*- C++ -*----------------------------------*\
  =========                 |
  \\      /  F ield         | OpenFOAM: The Open Source CFD Toolbox
   \\    /   O peration     | Website:  https://openfoam.org
    \\  /    A nd           | Version:  13
     \\/     M anipulation  |
\*---------------------------------------------------------------------------*/
FoamFile
{
    format      ascii;
    class       volVectorField;
    location    "43";
    object      U_0;
}
// * * * * * * * * * * * * * * * * * * * * * * * * * * * * * * * * * * * * * //

dimensions      [0 1 -1 0 0 0 0];

internalField   nonuniform List<vector> 
400
(
(0.00018288 -0.000186779 0)
(-0.000137651 2.99698e-05 0)
(-0.00153379 0.000268338 0)
(-0.00378667 0.000419446 0)
(-0.00654808 0.000499333 0)
(-0.00951651 0.000529818 0)
(-0.0124418 0.000520669 0)
(-0.0150901 0.000470804 0)
(-0.0172205 0.000373421 0)
(-0.0185861 0.000223092 0)
(-0.0189609 2.30586e-05 0)
(-0.0181896 -0.000209243 0)
(-0.0162471 -0.000439794 0)
(-0.0132895 -0.000621948 0)
(-0.00967402 -0.00070701 0)
(-0.005928 -0.000660018 0)
(-0.00265858 -0.000474838 0)
(-0.000407866 -0.000182101 0)
(0.000540047 0.000137097 0)
(0.000309678 0.000302699 0)
(-4.71529e-05 0.000136605 0)
(-0.00207906 0.00193238 0)
(-0.00643299 0.00375994 0)
(-0.0125832 0.00502372 0)
(-0.0197708 0.00568902 0)
(-0.0273247 0.00583232 0)
(-0.0346392 0.00550418 0)
(-0.0411319 0.00471094 0)
(-0.0462225 0.00344275 0)
(-0.0493522 0.00171905 0)
(-0.0500479 -0.000367215 0)
(-0.0480196 -0.0026213 0)
(-0.0432685 -0.00474571 0)
(-0.0361743 -0.00637701 0)
(-0.0275229 -0.00716218 0)
(-0.0184418 -0.00686403 0)
(-0.0102216 -0.00546774 0)
(-0.00403266 -0.00325592 0)
(-0.000576528 -0.000861236 0)
(0.000221628 0.000589267 0)
(-0.000353253 0.00171667 0)
(-0.00448587 0.00646508 0)
(-0.011869 0.0106726 0)
(-0.0215984 0.0135179 0)
(-0.0325759 0.0149518 0)
(-0.0438892 0.015102 0)
(-0.0546991 0.0140578 0)
(-0.0641885 0.0118413 0)
(-0.0715548 0.00846606 0)
(-0.0760455 0.00402687 0)
(-0.0770409 -0.00121525 0)
(-0.0741695 -0.00678322 0)
(-0.0674337 -0.0119903 0)
(-0.0573142 -0.0160189 0)
(-0.0448165 -0.0180794 0)
(-0.0314141 -0.0176316 0)
(-0.0188495 -0.0146204 0)
(-0.00879033 -0.00964983 0)
(-0.00241845 -0.00405538 0)
(3.51755e-05 2.45546e-05 0)
(-0.000630657 0.00459415 0)
(-0.00681034 0.0136731 0)
(-0.0170996 0.0209205 0)
(-0.0301474 0.0256286 0)
(-0.0445143 0.0278626 0)
(-0.0591068 0.0278414 0)
(-0.0729396 0.0257044 0)
(-0.0850544 0.0214979 0)
(-0.0945117 0.0152739 0)
(-0.100428 0.0072291 0)
(-0.102062 -0.00217123 0)
(-0.0989289 -0.0121198 0)
(-0.0909368 -0.0214745 0)
(-0.0785225 -0.0288702 0)
(-0.0627465 -0.0329543 0)
(-0.0452966 -0.0327392 0)
(-0.0283251 -0.0280089 0)
(-0.0140814 -0.0196471 0)
(-0.00443148 -0.00974777 0)
(-0.000125212 -0.00151597 0)
(-0.000869673 0.00865275 0)
(-0.00888983 0.0233288 0)
(-0.0218175 0.0341726 0)
(-0.0378626 0.0409162 0)
(-0.0552656 0.0439121 0)
(-0.0727973 0.0435471 0)
(-0.0893929 0.0400377 0)
(-0.104026 0.0334604 0)
(-0.115681 0.0239026 0)
(-0.12338 0.0116515 0)
(-0.126244 -0.00264031 0)
(-0.123609 -0.0178501 0)
(-0.115166 -0.0323716 0)
(-0.101143 -0.0442298 0)
(-0.0824883 -0.0513671 0)
(-0.0609897 -0.0521267 0)
(-0.0392154 -0.0458836 0)
(-0.0201654 -0.0336304 0)
(-0.00668151 -0.0182194 0)
(-0.000271581 -0.00409027 0)
(-0.00106661 0.0137318 0)
(-0.010643 0.0351303 0)
(-0.0258305 0.0500766 0)
(-0.0444594 0.0590151 0)
(-0.0645031 0.0627599 0)
(-0.0846445 0.061957 0)
(-0.103797 0.0569374 0)
(-0.120929 0.0478104 0)
(-0.135001 0.0346753 0)
(-0.144964 0.0178618 0)
(-0.149792 -0.00185733 0)
(-0.148572 -0.0231133 0)
(-0.140655 -0.0438767 0)
(-0.125886 -0.0615264 0)
(-0.104898 -0.0731361 0)
(-0.0794068 -0.0760682 0)
(-0.0523447 -0.0688821 0)
(-0.0276263 -0.0523401 0)
(-0.00945 -0.0299976 0)
(-0.000446827 -0.00784868 0)
(-0.00121389 0.0196386 0)
(-0.0119954 0.0486938 0)
(-0.0289608 0.0681843 0)
(-0.049647 0.0794828 0)
(-0.0718302 0.0840191 0)
(-0.0941566 0.0827916 0)
(-0.115573 0.076288 0)
(-0.135098 0.0646508 0)
(-0.151728 0.0479519 0)
(-0.16438 0.0264874 0)
(-0.171893 0.0010411 0)
(-0.173076 -0.0268956 0)
(-0.166849 -0.0549704 0)
(-0.152509 -0.0799338 0)
(-0.130133 -0.09785 0)
(-0.101086 -0.104731 0)
(-0.0684555 -0.0977347 0)
(-0.0371257 -0.0767924 0)
(-0.0130982 -0.0459336 0)
(-0.000702414 -0.0131207 0)
(-0.00130284 0.0261419 0)
(-0.0128752 0.0635481 0)
(-0.0310362 0.0879301 0)
(-0.0531217 0.101742 0)
(-0.0767852 0.107157 0)
(-0.100684 0.105614 0)
(-0.123847 0.0978032 0)
(-0.145408 0.0839039 0)
(-0.164459 0.0639189 0)
(-0.179956 0.0380202 0)
(-0.190661 0.00686712 0)
(-0.195141 -0.0280971 0)
(-0.191868 -0.0643691 0)
(-0.179477 -0.0981888 0)
(-0.15724 -0.124566 0)
(-0.125774 -0.137819 0)
(-0.0878914 -0.132969 0)
(-0.049239 -0.108139 0)
(-0.0180212 -0.0671986 0)
(-0.00110158 -0.02044 0)
(-0.00132876 0.0329757 0)
(-0.0132359 0.0791432 0)
(-0.031926 0.108631 0)
(-0.0546185 0.125058 0)
(-0.0789105 0.131436 0)
(-0.103511 0.129729 0)
(-0.127578 0.120887 0)
(-0.150415 0.105139 0)
(-0.171294 0.0823882 0)
(-0.18931 0.0526012 0)
(-0.203264 0.0161729 0)
(-0.211606 -0.0256999 0)
(-0.212448 -0.0706113 0)
(-0.203754 -0.114543 0)
(-0.183798 -0.151593 0)
(-0.152005 -0.174204 0)
(-0.11023 -0.174497 0)
(-0.0642644 -0.147384 0)
(-0.024618 -0.0952055 0)
(-0.00172748 -0.0305577 0)
(-0.00129831 0.0398623 0)
(-0.0130943 0.0948836 0)
(-0.0316093 0.129507 0)
(-0.0540074 0.148529 0)
(-0.0778806 0.155876 0)
(-0.102024 0.15412 0)
(-0.125765 0.144535 0)
(-0.148639 0.127436 0)
(-0.170182 0.102626 0)
(-0.189748 0.0698126 0)
(-0.206351 0.0290146 0)
(-0.218521 -0.0190174 0)
(-0.224225 -0.0722749 0)
(-0.220907 -0.126878 0)
(-0.2058 -0.176409 0)
(-0.176764 -0.211589 0)
(-0.133871 -0.221092 0)
(-0.0819468 -0.194916 0)
(-0.0332358 -0.131418 0)
(-0.00269401 -0.0444498 0)
(-0.00123939 0.0465607 0)
(-0.0125825 0.110198 0)
(-0.0302636 0.149736 0)
(-0.0514162 0.171121 0)
(-0.0736641 0.179262 0)
(-0.0959273 0.177431 0)
(-0.11775 0.167302 0)
(-0.138955 0.149335 0)
(-0.159423 0.123262 0)
(-0.178892 0.0885365 0)
(-0.196769 0.0447388 0)
(-0.211917 -0.00797887 0)
(-0.222476 -0.0683264 0)
(-0.225688 -0.13304 0)
(-0.217959 -0.195852 0)
(-0.195451 -0.246388 0)
(-0.155705 -0.269882 0)
(-0.101101 -0.249837 0)
(-0.044043 -0.176986 0)
(-0.00415563 -0.0633057 0)
(-0.00121459 0.0529489 0)
(-0.012012 0.124652 0)
(-0.0283647 0.168542 0)
(-0.0473576 0.191722 0)
(-0.0666805 0.200193 0)
(-0.0854485 0.198024 0)
(-0.10349 0.187366 0)
(-0.120976 0.168896 0)
(-0.138194 0.14234 0)
(-0.155359 0.10694 0)
(-0.172417 0.0618565 0)
(-0.188819 0.00657168 0)
(-0.20321 -0.0585565 0)
(-0.213092 -0.13139 0)
(-0.214549 -0.206657 0)
(-0.202326 -0.274008 0)
(-0.17107 -0.316118 0)
(-0.119232 -0.309236 0)
(-0.0567824 -0.232133 0)
(-0.00630982 -0.088468 0)
(-0.00134268 0.0591529 0)
(-0.0119574 0.138109 0)
(-0.0267871 0.185313 0)
(-0.0428222 0.209233 0)
(-0.0578868 0.217164 0)
(-0.0714345 0.21408 0)
(-0.0836954 0.202674 0)
(-0.0952589 0.183886 0)
(-0.106861 0.157503 0)
(-0.119228 0.122642 0)
(-0.132914 0.0781237 0)
(-0.148088 0.022811 0)
(-0.16421 -0.0439299 0)
(-0.179557 -0.121448 0)
(-0.190608 -0.206299 0)
(-0.19146 -0.289643 0)
(-0.174181 -0.353488 0)
(-0.132341 -0.367668 0)
(-0.0703883 -0.295267 0)
(-0.00937821 -0.12125 0)
(-0.00183922 0.0657449 0)
(-0.013375 0.150921 0)
(-0.0268882 0.199699 0)
(-0.0392806 0.222608 0)
(-0.0486946 0.228616 0)
(-0.0552045 0.223705 0)
(-0.0596359 0.211101 0)
(-0.0630842 0.192001 0)
(-0.0667476 0.166281 0)
(-0.0718346 0.133013 0)
(-0.0794712 0.0908076 0)
(-0.0905567 0.0380707 0)
(-0.105501 -0.0267071 0)
(-0.123753 -0.104393 0)
(-0.142985 -0.193918 0)
(-0.157839 -0.289464 0)
(-0.158952 -0.375103 0)
(-0.135083 -0.41721 0)
(-0.0825076 -0.361947 0)
(-0.0135142 -0.162475 0)
(-0.0030766 0.0740363 0)
(-0.0177511 0.164137 0)
(-0.0304908 0.211617 0)
(-0.0384144 0.230777 0)
(-0.0404698 0.232883 0)
(-0.0378594 0.224934 0)
(-0.0322862 0.210536 0)
(-0.0254499 0.191025 0)
(-0.0189958 0.166322 0)
(-0.0145343 0.135491 0)
(-0.0136456 0.0970593 0)
(-0.0178388 0.0491985 0)
(-0.0284163 -0.0101568 0)
(-0.0461433 -0.083075 0)
(-0.0704833 -0.170865 0)
(-0.0979597 -0.271766 0)
(-0.119706 -0.374943 0)
(-0.121102 -0.448366 0)
(-0.0889952 -0.424219 0)
(-0.0184931 -0.211667 0)
(-0.00557235 0.0865743 0)
(-0.0270892 0.179588 0)
(-0.0393286 0.220889 0)
(-0.0408899 0.232189 0)
(-0.0327689 0.22781 0)
(-0.0181476 0.215461 0)
(6.56135e-05 0.19872 0)
(0.0195077 0.178777 0)
(0.0381514 0.155458 0)
(0.0541154 0.127795 0)
(0.0655348 0.0943264 0)
(0.0704885 0.0532128 0)
(0.0669921 0.00223442 0)
(0.0531226 -0.0612787 0)
(0.0274817 -0.140373 0)
(-0.00931372 -0.237409 0)
(-0.0512057 -0.349092 0)
(-0.0831151 -0.451516 0)
(-0.0834244 -0.471081 0)
(-0.0231128 -0.266695 0)
(-0.00989221 0.108714 0)
(-0.0429477 0.1996 0)
(-0.0521336 0.225782 0)
(-0.0416288 0.22334 0)
(-0.0176395 0.209634 0)
(0.0135629 0.191881 0)
(0.0478 0.172774 0)
(0.0822392 0.152876 0)
(0.114715 0.131678 0)
(0.143324 0.108117 0)
(0.166164 0.0808012 0)
(0.181158 0.0480685 0)
(0.185936 0.0079114 0)
(0.177794 -0.0422731 0)
(0.153784 -0.106169 0)
(0.111533 -0.189074 0)
(0.052349 -0.295964 0)
(-0.0124958 -0.417714 0)
(-0.0567418 -0.488927 0)
(-0.024654 -0.324019 0)
(-0.01781 0.151674 0)
(-0.0612831 0.223639 0)
(-0.0522254 0.217685 0)
(-0.0142756 0.194981 0)
(0.0355445 0.171118 0)
(0.0887838 0.14914 0)
(0.141454 0.129443 0)
(0.191268 0.111435 0)
(0.236626 0.0940775 0)
(0.276128 0.0761891 0)
(0.308241 0.0565364 0)
(0.331097 0.0337963 0)
(0.342318 0.00645181 0)
(0.338909 -0.0274801 0)
(0.317062 -0.0711595 0)
(0.272196 -0.130524 0)
(0.200113 -0.216482 0)
(0.102981 -0.338347 0)
(0.00435529 -0.456779 0)
(-0.0159628 -0.369315 0)
(-0.0242217 0.20827 0)
(-0.0379117 0.230361 0)
(0.0372817 0.17654 0)
(0.125077 0.136869 0)
(0.205869 0.109081 0)
(0.27807 0.0882403 0)
(0.342343 0.0721453 0)
(0.398974 0.0592069 0)
(0.448008 0.0480438 0)
(0.489212 0.0375246 0)
(0.521913 0.0267086 0)
(0.544877 0.0147483 0)
(0.556222 0.000770965 0)
(0.553296 -0.0162953 0)
(0.532286 -0.0382892 0)
(0.487727 -0.0691509 0)
(0.411131 -0.1191 0)
(0.29088 -0.209351 0)
(0.133128 -0.338289 0)
(0.0387724 -0.340363 0)
(0.241887 0.109134 0)
(0.313458 0.0971183 0)
(0.444324 0.0569678 0)
(0.549636 0.0351071 0)
(0.624073 0.0237365 0)
(0.679623 0.0167064 0)
(0.723507 0.0119768 0)
(0.75882 0.00869152 0)
(0.787111 0.00625348 0)
(0.809179 0.0042312 0)
(0.8252 0.00233012 0)
(0.834806 0.000342464 0)
(0.837134 -0.00190815 0)
(0.830765 -0.00458985 0)
(0.813397 -0.00802811 0)
(0.781138 -0.0128852 0)
(0.725695 -0.0212304 0)
(0.629865 -0.0380935 0)
(0.459269 -0.0855504 0)
(0.304894 -0.125698 0)
)
;

boundaryField
{
    movingWall
    {
        type            calculated;
        value           uniform (1 0 0);
    }
    fixedWalls
    {
        type            calculated;
        value           uniform (0 0 0);
    }
    frontAndBack
    {
        type            empty;
    }
}


// ************************************************************************* //
