/*--------------------------------*- C++ -*----------------------------------*\
  =========                 |
  \\      /  F ield         | OpenFOAM: The Open Source CFD Toolbox
   \\    /   O peration     | Website:  https://openfoam.org
    \\  /    A nd           | Version:  13
     \\/     M anipulation  |
\*---------------------------------------------------------------------------*/
FoamFile
{
    format      ascii;
    class       volVectorField;
    location    "11";
    object      U_0;
}
// * * * * * * * * * * * * * * * * * * * * * * * * * * * * * * * * * * * * * //

dimensions      [0 1 -1 0 0 0 0];

internalField   nonuniform List<vector> 
400
(
(9.85714e-05 -0.000100365 0)
(-0.000237788 8.04788e-05 0)
(-0.00137907 0.000262475 0)
(-0.00313921 0.000379698 0)
(-0.00524749 0.000438726 0)
(-0.00746791 0.000453264 0)
(-0.00961088 0.000431878 0)
(-0.0115133 0.000377022 0)
(-0.0130225 0.000287716 0)
(-0.0139923 0.000163499 0)
(-0.0142921 8.44284e-06 0)
(-0.0138293 -0.000165778 0)
(-0.0125789 -0.000338413 0)
(-0.0106143 -0.00048095 0)
(-0.0081273 -0.000561734 0)
(-0.00542587 -0.000553765 0)
(-0.00290183 -0.000444048 0)
(-0.000963017 -0.000242464 0)
(8.18896e-05 6.07669e-06 0)
(0.000180019 0.000176254 0)
(-8.65024e-05 0.000233449 0)
(-0.00166608 0.00160176 0)
(-0.00498798 0.00295345 0)
(-0.00959505 0.00385001 0)
(-0.0149192 0.00427865 0)
(-0.0204465 0.00430634 0)
(-0.0257318 0.00399234 0)
(-0.0303771 0.003369 0)
(-0.0340115 0.00245244 0)
(-0.0362916 0.00126501 0)
(-0.0369258 -0.000140158 0)
(-0.0357221 -0.00165956 0)
(-0.032649 -0.00313107 0)
(-0.027896 -0.00434369 0)
(-0.0219089 -0.00506912 0)
(-0.01538 -0.00511474 0)
(-0.00917074 -0.00438979 0)
(-0.00415979 -0.00297413 0)
(-0.00102247 -0.00119221 0)
(6.34242e-05 0.000121882 0)
(-0.000304386 0.0014571 0)
(-0.00333308 0.00501672 0)
(-0.00877663 0.00810361 0)
(-0.0158787 0.0101223 0)
(-0.0238479 0.011055 0)
(-0.0319975 0.0110215 0)
(-0.0397218 0.0101368 0)
(-0.0464691 0.00847405 0)
(-0.0517254 0.00608462 0)
(-0.0550197 0.00304279 0)
(-0.0559573 -0.000503877 0)
(-0.0542794 -0.00429454 0)
(-0.0499386 -0.00794045 0)
(-0.0431751 -0.010948 0)
(-0.0345682 -0.0127905 0)
(-0.0250322 -0.0130277 0)
(-0.0157302 -0.011458 0)
(-0.00788532 -0.00826971 0)
(-0.00252073 -0.00416367 0)
(-0.000104168 -0.000682988 0)
(-0.000494974 0.00354292 0)
(-0.00487126 0.0102492 0)
(-0.012306 0.015524 0)
(-0.0216869 0.0188593 0)
(-0.0320034 0.0203171 0)
(-0.0424374 0.0201022 0)
(-0.0522805 0.0183982 0)
(-0.060886 0.0153273 0)
(-0.0676448 0.0109836 0)
(-0.0719898 0.00550436 0)
(-0.0734307 -0.00085094 0)
(-0.0716195 -0.00763647 0)
(-0.0664389 -0.014193 0)
(-0.0581004 -0.0196801 0)
(-0.0472274 -0.0231865 0)
(-0.0348856 -0.0239268 0)
(-0.022516 -0.0215025 0)
(-0.0117324 -0.0161657 0)
(-0.00400484 -0.0089978 0)
(-0.000249507 -0.0022496 0)
(-0.000658768 0.00639054 0)
(-0.00625419 0.0171362 0)
(-0.0155366 0.0250057 0)
(-0.0270359 0.0298024 0)
(-0.0395292 0.0317795 0)
(-0.0520916 0.0312797 0)
(-0.0639507 0.0285758 0)
(-0.0744055 0.0238408 0)
(-0.0827831 0.0172052 0)
(-0.0884325 0.00885758 0)
(-0.0907534 -0.000841531 0)
(-0.0892627 -0.0112639 0)
(-0.0836964 -0.0214624 0)
(-0.0741406 -0.030197 0)
(-0.0611686 -0.0360731 0)
(-0.04594 -0.0378173 0)
(-0.0301933 -0.034678 0)
(-0.0160504 -0.0268579 0)
(-0.00560193 -0.0158009 0)
(-0.000390884 -0.0045579 0)
(-0.000801856 0.00991677 0)
(-0.00751249 0.0255376 0)
(-0.0185104 0.0364006 0)
(-0.0319973 0.0428083 0)
(-0.046555 0.0453201 0)
(-0.0611767 0.0444826 0)
(-0.0750591 0.0406835 0)
(-0.0874801 0.0341455 0)
(-0.0977282 0.025014 0)
(-0.105075 0.0134948 0)
(-0.108792 8.61585e-06 0)
(-0.108207 -0.0146693 0)
(-0.102821 -0.0293139 0)
(-0.0924807 -0.0422443 0)
(-0.0775843 -0.0514627 0)
(-0.0592964 -0.0550015 0)
(-0.0396546 -0.0514976 0)
(-0.0214288 -0.040889 0)
(-0.00758409 -0.0249371 0)
(-0.000564264 -0.00770183 0)
(-0.000928003 0.0140657 0)
(-0.00867539 0.0353399 0)
(-0.0212643 0.0495848 0)
(-0.0366115 0.0577669 0)
(-0.0531245 0.0608662 0)
(-0.0697434 0.059704 0)
(-0.0856683 0.0548126 0)
(-0.100191 0.046459 0)
(-0.112589 0.0347706 0)
(-0.122074 0.019915 0)
(-0.127777 0.00230268 0)
(-0.128799 -0.0172149 0)
(-0.124324 -0.0371825 0)
(-0.113826 -0.0554642 0)
(-0.0973659 -0.0693368 0)
(-0.075952 -0.0758731 0)
(-0.0518424 -0.0727099 0)
(-0.0285633 -0.0591396 0)
(-0.0102925 -0.037099 0)
(-0.000812692 -0.0119414 0)
(-0.00103813 0.0187967 0)
(-0.0097566 0.0464392 0)
(-0.0238014 0.0644309 0)
(-0.0408512 0.0745513 0)
(-0.0591567 0.0783181 0)
(-0.0776367 0.0769036 0)
(-0.0955319 0.0710174 0)
(-0.112188 0.0609647 0)
(-0.126914 0.0468145 0)
(-0.138892 0.0286261 0)
(-0.147137 0.00670428 0)
(-0.150512 -0.0181331 0)
(-0.147832 -0.0442984 0)
(-0.138081 -0.0692438 0)
(-0.12078 -0.0894377 0)
(-0.0965252 -0.100704 0)
(-0.0675685 -0.0991527 0)
(-0.0381776 -0.0827895 0)
(-0.0141244 -0.0533412 0)
(-0.00118836 -0.0177272 0)
(-0.0011324 0.024075 0)
(-0.0107595 0.0587227 0)
(-0.0260945 0.0807778 0)
(-0.044621 0.0929686 0)
(-0.0644418 0.0974769 0)
(-0.0844857 0.0959109 0)
(-0.104074 0.0891963 0)
(-0.122655 0.0776748 0)
(-0.139621 0.0613186 0)
(-0.154191 0.0400038 0)
(-0.165323 0.0138194 0)
(-0.171695 -0.0165934 0)
(-0.171762 -0.0496734 0)
(-0.163947 -0.0825956 0)
(-0.147037 -0.11104 0)
(-0.120864 -0.129353 0)
(-0.0872473 -0.131489 0)
(-0.0509186 -0.113182 0)
(-0.0195348 -0.0750805 0)
(-0.00175955 -0.0257301 0)
(-0.00121474 0.0298699 0)
(-0.0116958 0.0720588 0)
(-0.0281142 0.0984045 0)
(-0.0477891 0.112712 0)
(-0.0686727 0.117971 0)
(-0.0897343 0.116325 0)
(-0.110418 0.108964 0)
(-0.130326 0.0962771 0)
(-0.149007 0.0781124 0)
(-0.165805 0.054102 0)
(-0.179737 0.0240125 0)
(-0.189419 -0.0118524 0)
(-0.193056 -0.0521742 0)
(-0.188542 -0.094103 0)
(-0.173802 -0.13273 0)
(-0.147533 -0.160878 0)
(-0.110481 -0.169768 0)
(-0.0671527 -0.151521 0)
(-0.0270213 -0.10403 0)
(-0.00262132 -0.0368799 0)
(-0.00130071 0.0361678 0)
(-0.0126198 0.0863047 0)
(-0.0298815 0.117015 0)
(-0.0502499 0.133316 0)
(-0.0715151 0.139186 0)
(-0.0927206 0.137417 0)
(-0.113479 0.12953 0)
(-0.133605 0.115982 0)
(-0.152882 0.0964996 0)
(-0.17089 0.0704404 0)
(-0.186866 0.0371742 0)
(-0.199565 -0.00347778 0)
(-0.207165 -0.0507097 0)
(-0.207223 -0.101995 0)
(-0.196834 -0.152272 0)
(-0.173282 -0.193145 0)
(-0.135493 -0.212824 0)
(-0.0865902 -0.198314 0)
(-0.0370473 -0.141991 0)
(-0.00390902 -0.0524034 0)
(-0.00143088 0.0430115 0)
(-0.0136843 0.101344 0)
(-0.0315482 0.136241 0)
(-0.0520144 0.154127 0)
(-0.0727055 0.160204 0)
(-0.0927943 0.158054 0)
(-0.112122 0.149597 0)
(-0.130778 0.135404 0)
(-0.148855 0.115109 0)
(-0.16629 0.0878116 0)
(-0.182712 0.0524656 0)
(-0.197284 0.00831196 0)
(-0.208471 -0.0445712 0)
(-0.213839 -0.104432 0)
(-0.209959 -0.166724 0)
(-0.192695 -0.222602 0)
(-0.158526 -0.257622 0)
(-0.107702 -0.252529 0)
(-0.0498319 -0.190369 0)
(-0.00581167 -0.0738343 0)
(-0.00169425 0.0505836 0)
(-0.0152277 0.117165 0)
(-0.033501 0.155656 0)
(-0.0533079 0.174267 0)
(-0.0721439 0.179755 0)
(-0.0894264 0.176649 0)
(-0.105321 0.167331 0)
(-0.12026 0.152532 0)
(-0.134719 0.131847 0)
(-0.149083 0.104187 0)
(-0.163527 0.068147 0)
(-0.17784 0.0223888 0)
(-0.191154 -0.0338631 0)
(-0.201561 -0.100052 0)
(-0.205669 -0.172943 0)
(-0.198353 -0.244481 0)
(-0.173476 -0.298873 0)
(-0.12702 -0.310578 0)
(-0.0649067 -0.249262 0)
(-0.00857278 -0.102924 0)
(-0.00226981 0.0593626 0)
(-0.0179043 0.133985 0)
(-0.0364739 0.174794 0)
(-0.0546174 0.192591 0)
(-0.0698854 0.196168 0)
(-0.0821852 0.191143 0)
(-0.0921694 0.180383 0)
(-0.100704 0.164793 0)
(-0.108693 0.143988 0)
(-0.117013 0.116788 0)
(-0.12645 0.0815638 0)
(-0.137571 0.0365201 0)
(-0.15046 -0.0199565 0)
(-0.164252 -0.0887013 0)
(-0.176397 -0.168516 0)
(-0.181741 -0.253656 0)
(-0.172136 -0.329309 0)
(-0.138618 -0.365541 0)
(-0.0803637 -0.316075 0)
(-0.0124325 -0.141307 0)
(-0.00348401 0.0703803 0)
(-0.0228497 0.152388 0)
(-0.0415733 0.19307 0)
(-0.0565017 0.207527 0)
(-0.0657678 0.207242 0)
(-0.0702548 0.198967 0)
(-0.0713659 0.185956 0)
(-0.0705072 0.169226 0)
(-0.0690309 0.148427 0)
(-0.0682735 0.122379 0)
(-0.0695847 0.0893973 0)
(-0.0742874 0.0474542 0)
(-0.0835066 -0.00565837 0)
(-0.0977562 -0.0720444 0)
(-0.11612 -0.15287 0)
(-0.134789 -0.246069 0)
(-0.145202 -0.340864 0)
(-0.134119 -0.407201 0)
(-0.091851 -0.383949 0)
(-0.0173736 -0.189712 0)
(-0.00580569 0.0856842 0)
(-0.0317139 0.173381 0)
(-0.0498187 0.209363 0)
(-0.0585193 0.216554 0)
(-0.0578785 0.209832 0)
(-0.0506337 0.196804 0)
(-0.0392831 0.180766 0)
(-0.0258541 0.16264 0)
(-0.0121024 0.142036 0)
(0.000304299 0.117807 0)
(0.00962497 0.0883461 0)
(0.0139767 0.0516598 0)
(0.0113827 0.00534912 0)
(4.70408e-06 -0.0534455 0)
(-0.0212778 -0.127891 0)
(-0.0513531 -0.220173 0)
(-0.0837007 -0.32652 0)
(-0.103303 -0.423208 0)
(-0.0915705 -0.440931 0)
(-0.0224688 -0.246923 0)
(-0.00976407 0.109855 0)
(-0.0458444 0.198095 0)
(-0.0595582 0.220594 0)
(-0.0549772 0.214803 0)
(-0.0374809 0.198871 0)
(-0.0128574 0.180075 0)
(0.0151845 0.160934 0)
(0.0441721 0.141848 0)
(0.0721995 0.122185 0)
(0.097551 0.100789 0)
(0.118402 0.0762201 0)
(0.132667 0.0467213 0)
(0.137922 0.0100981 0)
(0.131476 -0.0365407 0)
(0.110494 -0.0972625 0)
(0.0727936 -0.177553 0)
(0.0202446 -0.282126 0)
(-0.0348081 -0.400923 0)
(-0.0679147 -0.47022 0)
(-0.0249551 -0.308901 0)
(-0.0171363 0.153351 0)
(-0.0615858 0.224889 0)
(-0.0548283 0.216777 0)
(-0.0205545 0.19172 0)
(0.0247673 0.165994 0)
(0.0730633 0.142874 0)
(0.120776 0.12268 0)
(0.165991 0.104763 0)
(0.207391 0.0880287 0)
(0.24381 0.0712459 0)
(0.273777 0.053259 0)
(0.295441 0.0327361 0)
(0.306447 0.00793173 0)
(0.303922 -0.0234392 0)
(0.284321 -0.0648829 0)
(0.242822 -0.12271 0)
(0.175224 -0.208259 0)
(0.084868 -0.33004 0)
(-0.00603046 -0.449335 0)
(-0.0175377 -0.360559 0)
(-0.0233083 0.209437 0)
(-0.0369076 0.232468 0)
(0.038558 0.17747 0)
(0.125101 0.136677 0)
(0.203666 0.107588 0)
(0.273049 0.0856675 0)
(0.334047 0.0689374 0)
(0.387257 0.055795 0)
(0.433012 0.0448193 0)
(0.471207 0.0349005 0)
(0.501224 0.025161 0)
(0.522607 0.0145647 0)
(0.533496 0.00211294 0)
(0.531298 -0.0135063 0)
(0.511959 -0.0347459 0)
(0.46994 -0.0653907 0)
(0.396704 -0.116264 0)
(0.280353 -0.2083 0)
(0.126011 -0.338768 0)
(0.035757 -0.337899 0)
(0.242237 0.109424 0)
(0.314793 0.0974588 0)
(0.446666 0.0568109 0)
(0.552041 0.0345844 0)
(0.625931 0.0229029 0)
(0.680231 0.0157647 0)
(0.722184 0.0110912 0)
(0.755298 0.00794576 0)
(0.781518 0.00571759 0)
(0.801934 0.00399264 0)
(0.816939 0.00243953 0)
(0.82634 0.000806747 0)
(0.829342 -0.00107046 0)
(0.824553 -0.00333342 0)
(0.809541 -0.00631562 0)
(0.779958 -0.0107958 0)
(0.726709 -0.0189381 0)
(0.632016 -0.0357025 0)
(0.460059 -0.0846444 0)
(0.303997 -0.125486 0)
)
;

boundaryField
{
    movingWall
    {
        type            calculated;
        value           uniform (1 0 0);
    }
    fixedWalls
    {
        type            calculated;
        value           uniform (0 0 0);
    }
    frontAndBack
    {
        type            empty;
    }
}


// ************************************************************************* //
