/*--------------------------------*- C++ -*----------------------------------*\
  =========                 |
  \\      /  F ield         | OpenFOAM: The Open Source CFD Toolbox
   \\    /   O peration     | Website:  https://openfoam.org
    \\  /    A nd           | Version:  13
     \\/     M anipulation  |
\*---------------------------------------------------------------------------*/
FoamFile
{
    format      ascii;
    class       surfaceScalarField;
    location    "22";
    object      phi_0;
}
// * * * * * * * * * * * * * * * * * * * * * * * * * * * * * * * * * * * * * //

dimensions      [0 3 -1 0 0 0 0];

internalField   nonuniform List<scalar> 
760
(
3.05608e-06
-3.05561e-06
-3.88007e-05
4.18565e-05
-0.000126554
8.77543e-05
-0.000245249
0.000118694
-0.000379877
0.000134628
-0.000517808
0.000137931
-0.000647946
0.000130138
-0.000759492
0.000111546
-0.000841389
8.18982e-05
-0.000882874
4.14863e-05
-0.000875118
-7.75586e-06
-0.000813672
-6.14455e-05
-0.000701027
-0.000112645
-0.000548418
-0.000152609
-0.000375843
-0.000172576
-0.000209513
-0.000166331
-7.6643e-05
-0.00013287
1.71605e-06
-7.83592e-05
1.96557e-05
-1.79404e-05
1.96553e-05
-4.49957e-05
4.19404e-05
-0.00019728
0.000194142
-0.000444724
0.000335198
-0.000756569
0.000430537
-0.00110065
0.000478711
-0.00144747
0.00048475
-0.00176965
0.000452315
-0.00204058
0.000382482
-0.00223424
0.000275556
-0.00232683
0.000134075
-0.00230035
-3.42334e-05
-0.00214727
-0.000214526
-0.00187523
-0.000384685
-0.00151005
-0.000517782
-0.0010954
-0.00058723
-0.000687522
-0.000574207
-0.000344761
-0.000475632
-0.000112854
-0.000310267
-8.67873e-06
-0.000122116
1.09761e-05
-0.00010427
0.000146211
-0.000378127
0.000467998
-0.00077856
0.000735631
-0.00125993
0.000911906
-0.00177846
0.00099724
-0.00229365
0.000999945
-0.00276727
0.000925929
-0.00316214
0.000777362
-0.00344254
0.000555954
-0.00357654
0.000268072
-0.00354044
-7.03332e-05
-0.00332436
-0.000430607
-0.00293784
-0.0007712
-0.00241385
-0.00104177
-0.00180909
-0.00119199
-0.00119856
-0.00118474
-0.000662993
-0.0010112
-0.000270101
-0.00070316
-5.41138e-05
-0.000338103
-4.31381e-05
-0.000160295
0.000306506
-0.000551054
0.000858758
-0.00109589
0.00128046
-0.00173191
0.00154793
-0.00240518
0.0016705
-0.00306764
0.00166241
-0.0036743
0.00153259
-0.00418142
0.00128448
-0.00454675
0.000921285
-0.00473204
0.000453362
-0.00470757
-9.48098e-05
-0.00445814
-0.000680034
-0.00398977
-0.00123956
-0.0033356
-0.00169595
-0.00255877
-0.00196882
-0.00174925
-0.00199425
-0.00101134
-0.00174911
-0.000441403
-0.0012731
-0.000101482
-0.000678025
-0.000144621
-0.000210393
0.000516899
-0.000707595
0.00135596
-0.00138445
0.00195732
-0.00216123
0.00232471
-0.00297505
0.00248432
-0.0037728
0.00246016
-0.0045058
0.00226559
-0.00512667
0.00190536
-0.00558871
0.00138332
-0.0058477
0.000712347
-0.00586598
-7.65234e-05
-0.00561866
-0.000927358
-0.0051016
-0.00175662
-0.00434049
-0.00245706
-0.00339852
-0.00291078
-0.00237837
-0.0030144
-0.00141227
-0.00271521
-0.000636229
-0.00204914
-0.00015303
-0.00116123
-0.000297651
-0.000253533
0.000770432
-0.000843352
0.00194578
-0.00163616
0.00275012
-0.00253765
0.0032262
-0.00347792
0.00342459
-0.00440112
0.00338335
-0.00525755
0.00312202
-0.00599872
0.00264653
-0.00657516
0.00195977
-0.00693691
0.00107409
-0.00703647
2.30349e-05
-0.00683473
-0.0011291
-0.00631039
-0.00228096
-0.0054728
-0.00329465
-0.00437649
-0.00400708
-0.00313186
-0.00425903
-0.00190223
-0.00394484
-0.000876443
-0.00307493
-0.000216244
-0.00182143
-0.000513894
-0.000288501
0.00105893
-0.000953876
0.00261115
-0.00184229
0.00363854
-0.00284802
0.00423193
-0.00389647
0.00447305
-0.00493141
0.00441829
-0.00590473
0.00409534
-0.00676943
0.00351122
-0.00747547
0.00266581
-0.00796829
0.00156691
-0.00818999
0.000244732
-0.0080843
-0.00123479
-0.00760648
-0.00275879
-0.00673971
-0.00416141
-0.00551745
-0.00522934
-0.00404664
-0.00572984
-0.0025188
-0.00547268
-0.00118796
-0.00440577
-0.000300497
-0.00270889
-0.000814391
-0.000313833
0.00137276
-0.00103422
0.00333154
-0.00199284
0.00459716
-0.00307583
0.00531492
-0.00420625
0.00560347
-0.00532977
0.00554181
-0.0064025
0.00516808
-0.00738193
0.00449065
-0.00822063
0.00350451
-0.00886243
0.0022087
-0.0092412
0.000623495
-0.00928359
-0.0011924
-0.00891788
-0.00312449
-0.00809196
-0.00498733
-0.0068025
-0.0065188
-0.00513335
-0.00739899
-0.0032898
-0.00731623
-0.00159635
-0.00609921
-0.000416229
-0.00388901
-0.00123062
-0.00032838
0.00170115
-0.00108019
0.00408335
-0.00207839
0.00559535
-0.00320373
0.00644026
-0.00437895
0.00677869
-0.00555369
0.00671655
-0.0066909
0.00630529
-0.00775598
0.00555573
-0.00870846
0.00445699
-0.00949577
0.00299601
-0.0100491
0.00117685
-0.0102828
-0.000958695
-0.0100996
-0.00330769
-0.00940666
-0.00568031
-0.00814776
-0.0077777
-0.00635619
-0.00919055
-0.00422002
-0.00945241
-0.00212216
-0.00819707
-0.000574719
-0.00543646
-0.00180534
-0.000332326
0.00203347
-0.00109083
0.00484186
-0.00209385
0.00659838
-0.00321858
0.00756498
-0.00438892
0.00794904
-0.00556041
0.00788803
-0.0067054
0.00745028
-0.00780086
0.00665119
-0.00881846
0.0054746
-0.00971633
0.00389387
-0.010432
0.00189248
-0.0108771
-0.000513562
-0.0109373
-0.00324747
-0.010481
-0.00613661
-0.00938831
-0.0088704
-0.0076115
-0.0109674
-0.00527325
-0.0117907
-0.00277325
-0.0106971
-0.000787616
-0.0074221
-0.00259295
-0.000328659
0.00236213
-0.00107185
0.00558506
-0.00204375
0.00757028
-0.0031183
0.00863953
-0.0042221
0.00905284
-0.00531867
0.0089846
-0.00639241
0.00852402
-0.00743545
0.00769423
-0.00843685
0.006476
-0.00937316
0.00483018
-0.0101991
0.00271838
-0.0108377
0.00012503
-0.0111729
-0.00291221
-0.0110471
-0.00626245
-0.0102777
-0.00963982
-0.00871265
-0.0125324
-0.00635143
-0.0141519
-0.00353186
-0.0135166
-0.00106529
-0.00988867
-0.00365824
-0.000325179
0.00268731
-0.00104
0.00629988
-0.00194807
0.00847834
-0.0029192
0.00961067
-0.00388524
0.0100189
-0.00482103
0.00992038
-0.00572618
0.00942918
-0.00661123
0.00857927
-0.00748689
0.00735166
-0.00835469
0.00569797
-0.0091966
0.00356029
-0.00996268
0.000891112
-0.0105552
-0.00231973
-0.0108143
-0.00600335
-0.0105135
-0.0099406
-0.00939301
-0.0136528
-0.00727823
-0.0162667
-0.00433638
-0.0164585
-0.00141257
-0.0128125
-0.00507082
-0.000337382
0.00302469
-0.00102806
0.00699055
-0.00184776
0.00929805
-0.00266125
0.0104242
-0.00341161
0.0107692
-0.00409132
0.0106001
-0.00471968
0.0100575
-0.00532846
0.00918805
-0.0059524
0.0079756
-0.00662136
0.00636694
-0.00735112
0.00429005
-0.00813037
0.00167037
-0.00890112
-0.00154899
-0.00953226
-0.0053722
-0.00979092
-0.00968194
-0.0093362
-0.0141076
-0.00779886
-0.017804
-0.00506227
-0.019195
-0.00182018
-0.0160546
-0.00689099
-0.000393044
0.00341774
-0.00109046
0.00768797
-0.00180745
0.010015
-0.00240685
0.0110236
-0.00285666
0.0112191
-0.00317857
0.010922
-0.0034181
0.0102971
-0.00363081
0.00940076
-0.00387543
0.00822022
-0.00420933
0.00670084
-0.00468251
0.00476323
-0.00532735
0.00231521
-0.00614019
-0.000736147
-0.00704938
-0.00446301
-0.00786599
-0.00886534
-0.00822833
-0.0137452
-0.00760247
-0.0184299
-0.00551013
-0.0212874
-0.00225
-0.0193147
-0.00914099
-0.000538894
0.00395663
-0.00130692
0.008456
-0.00190815
0.0106163
-0.00222153
0.0113369
-0.00226887
0.0112664
-0.00211997
0.0107731
-0.00185532
0.0100324
-0.00155651
0.00910195
-0.00130375
0.00796746
-0.00117726
0.00657435
-0.00125572
0.00484168
-0.00161151
0.00267101
-0.00229852
-4.91394e-05
-0.0033242
-0.00343733
-0.00459263
-0.0075969
-0.00580572
-0.0125321
-0.00635564
-0.01788
-0.00540242
-0.0222406
-0.00261165
-0.0221055
-0.0117526
-0.000842511
0.00479914
-0.00176863
0.00938212
-0.00220135
0.011049
-0.00209798
0.0112336
-0.00159164
0.01076
-0.000827685
0.0100092
6.91774e-05
0.00913557
0.000993123
0.00817801
0.00184617
0.00711441
0.00253358
0.00588694
0.00295788
0.00441739
0.00301739
0.00261149
0.00260989
0.000358358
0.00164856
-0.002476
0.00010803
-0.00605637
-0.00186137
-0.0105627
-0.00372139
-0.0160199
-0.00437981
-0.0215822
-0.00272587
-0.0237594
-0.0144785
-0.00136898
0.00616812
-0.00248614
0.0104993
-0.00251621
0.0110791
-0.00169586
0.0104132
-0.000372337
0.00943651
0.0012095
0.00842732
0.00288462
0.00746045
0.00453151
0.00653112
0.00604992
0.005596
0.00734354
0.00459332
0.00830992
0.00345101
0.00883355
0.00208786
0.00878174
0.000410162
0.00800753
-0.00170179
0.0063703
-0.00441915
0.00382304
-0.00801549
0.000667427
-0.0128643
-0.00199673
-0.018918
-0.00229621
-0.0234599
-0.0167747
-0.00213821
0.00830633
-0.00294897
0.01131
-0.0017552
0.00988528
0.000415072
0.00824295
0.00294089
0.00691069
0.00553806
0.00583015
0.00805855
0.00493995
0.0104093
0.00418038
0.0125184
0.00348694
0.0143123
0.00279934
0.0157042
0.00205911
0.0165852
0.00120691
0.0168153
0.000180042
0.016219
-0.0011055
0.014577
-0.00277715
0.0116514
-0.00508985
0.00735201
-0.0085649
0.0023715
-0.0139375
-0.000918088
-0.0201703
-0.0176928
-0.00247759
0.0107839
-3.22761e-06
0.00883567
0.00417291
0.00570914
0.00829491
0.00412095
0.0120523
0.00315333
0.0154196
0.0024628
0.0184029
0.00195665
0.0210126
0.00157068
0.0232487
0.00125084
0.0250916
0.000956508
0.0264954
0.000655234
0.0273811
0.000321242
0.0276303
-6.91914e-05
0.0270796
-0.000554799
0.0254859
-0.00118346
0.0224862
-0.0020901
0.0175754
-0.00365413
0.0103708
-0.00673291
0.00245592
-0.0122555
-0.0152369
0.0107839
0.0196196
0.0253287
0.0294497
0.032603
0.0350658
0.0370225
0.0385931
0.039844
0.0408005
0.0414557
0.041777
0.0417078
0.041153
0.0399695
0.0378794
0.0342253
0.0274924
0.0152369
)
;

boundaryField
{
    movingWall
    {
        type            calculated;
        value           uniform 0;
    }
    fixedWalls
    {
        type            calculated;
        value           uniform 0;
    }
    frontAndBack
    {
        type            empty;
    }
}


// ************************************************************************* //
