/*--------------------------------*- C++ -*----------------------------------*\
  =========                 |
  \\      /  F ield         | OpenFOAM: The Open Source CFD Toolbox
   \\    /   O peration     | Website:  https://openfoam.org
    \\  /    A nd           | Version:  13
     \\/     M anipulation  |
\*---------------------------------------------------------------------------*/
FoamFile
{
    format      ascii;
    class       volVectorField;
    location    "22";
    object      U_0;
}
// * * * * * * * * * * * * * * * * * * * * * * * * * * * * * * * * * * * * * //

dimensions      [0 1 -1 0 0 0 0];

internalField   nonuniform List<vector> 
400
(
(0.000157359 -0.000160557 0)
(-0.000168498 4.86558e-05 0)
(-0.00149703 0.000273027 0)
(-0.00362025 0.00041642 0)
(-0.00621383 0.000491125 0)
(-0.00899342 0.000516868 0)
(-0.011724 0.000503334 0)
(-0.0141893 0.000450533 0)
(-0.0161701 0.00035333 0)
(-0.0174436 0.000207701 0)
(-0.0178057 1.71625e-05 0)
(-0.0171144 -0.000202249 0)
(-0.0153425 -0.000419745 0)
(-0.0126246 -0.000593037 0)
(-0.00927811 -0.000677399 0)
(-0.00578008 -0.000639474 0)
(-0.00268955 -0.000471042 0)
(-0.00051852 -0.000197804 0)
(0.000442055 0.000105829 0)
(0.000279195 0.000272842 0)
(-6.18098e-05 0.00016633 0)
(-0.00196286 0.00184165 0)
(-0.0060433 0.0035465 0)
(-0.0117891 0.00471977 0)
(-0.0185004 0.00533071 0)
(-0.0255481 0.00545144 0)
(-0.0323682 0.00513365 0)
(-0.0384242 0.00438915 0)
(-0.0431856 0.0032132 0)
(-0.046142 0.00162418 0)
(-0.0468574 -0.000296445 0)
(-0.045057 -0.00237692 0)
(-0.0407266 -0.00435156 0)
(-0.0341959 -0.00589065 0)
(-0.026171 -0.0066669 0)
(-0.0176825 -0.00644996 0)
(-0.00992943 -0.00520574 0)
(-0.00402194 -0.00317213 0)
(-0.000655687 -0.000918167 0)
(0.000185717 0.000489169 0)
(-0.000344651 0.00164792 0)
(-0.00417077 0.0060767 0)
(-0.0110459 0.00999936 0)
(-0.0200936 0.0126456 0)
(-0.0303112 0.0139712 0)
(-0.0408472 0.0140973 0)
(-0.0509229 0.0131163 0)
(-0.0597867 0.0110588 0)
(-0.0667021 0.00794268 0)
(-0.0709756 0.00385213 0)
(-0.0720286 -0.000983984 0)
(-0.0695013 -0.00614198 0)
(-0.0633708 -0.0110027 0)
(-0.0540539 -0.0148172 0)
(-0.0424569 -0.0168467 0)
(-0.0299322 -0.0165649 0)
(-0.0181026 -0.0138793 0)
(-0.00854773 -0.00930351 0)
(-0.00241539 -0.00404173 0)
(4.55875e-06 -0.000116373 0)
(-0.000599477 0.00430771 0)
(-0.00628877 0.0127601 0)
(-0.0158406 0.0195096 0)
(-0.0279521 0.0238958 0)
(-0.0413156 0.0259758 0)
(-0.0549122 0.0259567 0)
(-0.0678282 0.0239809 0)
(-0.07918 0.0201038 0)
(-0.0880997 0.0143764 0)
(-0.0937647 0.00696903 0)
(-0.0954716 -0.00171143 0)
(-0.0927448 -0.0109456 0)
(-0.0854675 -0.0196976 0)
(-0.074013 -0.0267085 0)
(-0.0593417 -0.0307071 0)
(-0.0430117 -0.0307341 0)
(-0.0270352 -0.0265238 0)
(-0.0135412 -0.0188248 0)
(-0.00431437 -0.00952515 0)
(-0.000151446 -0.00164724 0)
(-0.000819082 0.00803914 0)
(-0.00819387 0.0216936 0)
(-0.0201968 0.0317964 0)
(-0.0351058 0.0380991 0)
(-0.0513239 0.040917 0)
(-0.0677047 0.0406117 0)
(-0.083258 0.0373986 0)
(-0.0970326 0.0313603 0)
(-0.108082 0.0225743 0)
(-0.115483 0.0112839 0)
(-0.118393 -0.00194188 0)
(-0.116159 -0.0160985 0)
(-0.108454 -0.0297197 0)
(-0.0954611 -0.0409725 0)
(-0.0780418 -0.0479161 0)
(-0.0578596 -0.0489497 0)
(-0.0373282 -0.0434045 0)
(-0.0192885 -0.0321064 0)
(-0.00643438 -0.0176286 0)
(-0.000294794 -0.00414955 0)
(-0.00100285 0.0127074 0)
(-0.00983526 0.0326266 0)
(-0.0239836 0.0465714 0)
(-0.0413605 0.0549601 0)
(-0.0601212 0.0585239 0)
(-0.0790338 0.0578627 0)
(-0.0970836 0.0532974 0)
(-0.113306 0.0449366 0)
(-0.126724 0.0328586 0)
(-0.136332 0.0173336 0)
(-0.141136 -0.000968575 0)
(-0.140239 -0.0208193 0)
(-0.132993 -0.0403534 0)
(-0.11922 -0.0571225 0)
(-0.0995002 -0.0683574 0)
(-0.0754454 -0.0715213 0)
(-0.0498333 -0.0651628 0)
(-0.026382 -0.0498726 0)
(-0.00905704 -0.0288611 0)
(-0.000466375 -0.00776688 0)
(-0.00114629 0.0181616 0)
(-0.0111629 0.045253 0)
(-0.0270712 0.0634783 0)
(-0.046496 0.074129 0)
(-0.0674004 0.0784968 0)
(-0.0885128 0.0775062 0)
(-0.108844 0.0716206 0)
(-0.127471 0.0609711 0)
(-0.143433 0.0455978 0)
(-0.155682 0.0257247 0)
(-0.16308 0.00202129 0)
(-0.164455 -0.0241715 0)
(-0.158743 -0.0506775 0)
(-0.145249 -0.0744415 0)
(-0.12404 -0.0917232 0)
(-0.09642 -0.0986941 0)
(-0.0653512 -0.0925684 0)
(-0.0355008 -0.0731433 0)
(-0.0125433 -0.0440616 0)
(-0.000715473 -0.0128201 0)
(-0.00124278 0.0242239 0)
(-0.0121205 0.0591989 0)
(-0.0293175 0.0820653 0)
(-0.0502536 0.0951428 0)
(-0.0727582 0.10041 0)
(-0.0955645 0.0992005 0)
(-0.117757 0.0921624 0)
(-0.138511 0.0794486 0)
(-0.156948 0.061018 0)
(-0.172039 0.0369614 0)
(-0.182555 0.0078198 0)
(-0.187076 -0.0251125 0)
(-0.184097 -0.0595066 0)
(-0.172288 -0.0918002 0)
(-0.150953 -0.117224 0)
(-0.120719 -0.130316 0)
(-0.0843379 -0.12625 0)
(-0.0472643 -0.103114 0)
(-0.0172948 -0.0644042 0)
(-0.00110295 -0.0198332 0)
(-0.00128795 0.0306876 0)
(-0.0126644 0.0740209 0)
(-0.030598 0.101773 0)
(-0.0523785 0.11739 0)
(-0.075752 0.123643 0)
(-0.0994955 0.122362 0)
(-0.122813 0.114429 0)
(-0.145038 0.100029 0)
(-0.165449 0.0790075 0)
(-0.183135 0.051241 0)
(-0.196888 0.0170054 0)
(-0.205148 -0.0226417 0)
(-0.206041 -0.0654519 0)
(-0.197576 -0.107585 0)
(-0.1781 -0.143355 0)
(-0.147122 -0.165467 0)
(-0.106543 -0.166302 0)
(-0.0620538 -0.140899 0)
(-0.0237309 -0.0913359 0)
(-0.00170972 -0.0295522 0)
(-0.00128654 0.0373323 0)
(-0.0127996 0.0892265 0)
(-0.0308692 0.121942 0)
(-0.0527074 0.140092 0)
(-0.0760142 0.147336 0)
(-0.0996427 0.146087 0)
(-0.12296 0.137525 0)
(-0.145515 0.1219 0)
(-0.166836 0.0989344 0)
(-0.186246 0.0682371 0)
(-0.202722 0.0297043 0)
(-0.214758 -0.0160391 0)
(-0.220307 -0.0671152 0)
(-0.216839 -0.119775 0)
(-0.201684 -0.167777 0)
(-0.172847 -0.202099 0)
(-0.130571 -0.211758 0)
(-0.0797372 -0.187083 0)
(-0.0322386 -0.12641 0)
(-0.00264791 -0.0429611 0)
(-0.00126234 0.0439626 0)
(-0.0126306 0.10433 0)
(-0.0302554 0.141852 0)
(-0.0512886 0.162318 0)
(-0.0734068 0.170376 0)
(-0.0955759 0.169119 0)
(-0.117371 0.160103 0)
(-0.13862 0.143696 0)
(-0.159178 0.119527 0)
(-0.178738 0.0869285 0)
(-0.196642 0.0453534 0)
(-0.211692 -0.00516499 0)
(-0.22197 -0.0634225 0)
(-0.224716 -0.126238 0)
(-0.216412 -0.18744 0)
(-0.193393 -0.236841 0)
(-0.153474 -0.260038 0)
(-0.0992695 -0.241048 0)
(-0.0430467 -0.17094 0)
(-0.00407151 -0.0612824 0)
(-0.00127235 0.0504828 0)
(-0.0124284 0.118952 0)
(-0.0291526 0.160797 0)
(-0.0485119 0.183029 0)
(-0.0681827 0.191425 0)
(-0.087307 0.189873 0)
(-0.105734 0.180387 0)
(-0.123629 0.163521 0)
(-0.141249 0.138871 0)
(-0.158755 0.105539 0)
(-0.176018 0.0625414 0)
(-0.192403 0.00924426 0)
(-0.20648 -0.0540567 0)
(-0.215713 -0.125247 0)
(-0.216206 -0.199048 0)
(-0.202842 -0.265181 0)
(-0.170578 -0.306608 0)
(-0.118244 -0.300178 0)
(-0.0559699 -0.225379 0)
(-0.00618072 -0.0859245 0)
(-0.00142958 0.0570201 0)
(-0.0127201 0.132966 0)
(-0.0283376 0.178181 0)
(-0.045216 0.201142 0)
(-0.0610918 0.208986 0)
(-0.0754167 0.206524 0)
(-0.0884239 0.196295 0)
(-0.100688 0.179097 0)
(-0.112913 0.154563 0)
(-0.125777 0.121651 0)
(-0.139773 0.079023 0)
(-0.154995 0.0254178 0)
(-0.17083 -0.0398645 0)
(-0.185488 -0.116145 0)
(-0.195411 -0.199886 0)
(-0.194751 -0.282181 0)
(-0.175821 -0.345163 0)
(-0.132606 -0.359207 0)
(-0.0699937 -0.288377 0)
(-0.00920902 -0.118298 0)
(-0.00194438 0.0641206 0)
(-0.0144107 0.146687 0)
(-0.0290606 0.193618 0)
(-0.0427041 0.21557 0)
(-0.0533212 0.221448 0)
(-0.0609443 0.217101 0)
(-0.0663758 0.205601 0)
(-0.0706851 0.187993 0)
(-0.0750414 0.163991 0)
(-0.0806242 0.132497 0)
(-0.0885308 0.0919553 0)
(-0.0996273 0.040635 0)
(-0.114283 -0.0230461 0)
(-0.131894 -0.0999269 0)
(-0.150057 -0.188805 0)
(-0.163367 -0.283682 0)
(-0.16257 -0.368567 0)
(-0.136744 -0.41017 0)
(-0.082744 -0.355658 0)
(-0.013341 -0.159344 0)
(-0.00318322 0.073041 0)
(-0.0189299 0.161072 0)
(-0.0330279 0.206927 0)
(-0.0424788 0.225146 0)
(-0.0460043 0.227039 0)
(-0.0447191 0.219515 0)
(-0.0402689 0.206048 0)
(-0.034316 0.187832 0)
(-0.0284833 0.164625 0)
(-0.024373 0.135335 0)
(-0.023576 0.0983267 0)
(-0.0276195 0.0516311 0)
(-0.0378217 -0.00690694 0)
(-0.0549404 -0.0793568 0)
(-0.0783787 -0.166915 0)
(-0.104551 -0.267605 0)
(-0.124547 -0.370386 0)
(-0.123883 -0.443288 0)
(-0.0899328 -0.419258 0)
(-0.018395 -0.208717 0)
(-0.005654 0.0862371 0)
(-0.0282122 0.177801 0)
(-0.0418375 0.217762 0)
(-0.0450043 0.228158 0)
(-0.0384474 0.223452 0)
(-0.0252204 0.211318 0)
(-0.00813755 0.195241 0)
(0.0104816 0.176294 0)
(0.0286299 0.15417 0)
(0.0444263 0.127762 0)
(0.0559648 0.0954655 0)
(0.0612705 0.0553069 0)
(0.0582977 0.00496675 0)
(0.0450749 -0.0582616 0)
(0.0202069 -0.137372 0)
(-0.0156038 -0.234556 0)
(-0.0561809 -0.346279 0)
(-0.0863747 -0.448457 0)
(-0.0848738 -0.467851 0)
(-0.0231627 -0.264335 0)
(-0.00990678 0.108913 0)
(-0.0437456 0.198961 0)
(-0.0540895 0.224134 0)
(-0.0450082 0.220864 0)
(-0.022468 0.206727 0)
(0.00741094 0.188966 0)
(0.0405673 0.170223 0)
(0.0742362 0.15098 0)
(0.106284 0.130635 0)
(0.134806 0.108011 0)
(0.157863 0.0816034 0)
(0.173318 0.0496297 0)
(0.178727 0.0099835 0)
(0.171304 -0.0399953 0)
(0.148047 -0.103984 0)
(0.106571 -0.187186 0)
(0.0482501 -0.294397 0)
(-0.0154304 -0.416196 0)
(-0.0582703 -0.487232 0)
(-0.0248348 -0.322491 0)
(-0.0177115 0.152101 0)
(-0.0615057 0.223751 0)
(-0.0531295 0.21714 0)
(-0.0161712 0.193784 0)
(0.0325131 0.169481 0)
(0.0846113 0.147352 0)
(0.136271 0.127781 0)
(0.185305 0.11013 0)
(0.230181 0.0932921 0)
(0.26952 0.0760156 0)
(0.301773 0.0569843 0)
(0.325035 0.034775 0)
(0.336866 0.00779172 0)
(0.334195 -0.0260087 0)
(0.313139 -0.0697856 0)
(0.269012 -0.129426 0)
(0.197543 -0.21575 0)
(0.101082 -0.337825 0)
(0.00320343 -0.456307 0)
(-0.0162626 -0.368585 0)
(-0.024064 0.20863 0)
(-0.0376459 0.230732 0)
(0.0374141 0.176585 0)
(0.124778 0.136503 0)
(0.204866 0.108397 0)
(0.276225 0.0873994 0)
(0.339633 0.0713179 0)
(0.395505 0.058535 0)
(0.443995 0.0476283 0)
(0.484885 0.0374413 0)
(0.517605 0.0269649 0)
(0.540897 0.0152908 0)
(0.552786 0.00149615 0)
(0.550529 -0.0155185 0)
(0.530208 -0.0376055 0)
(0.486241 -0.0686765 0)
(0.410142 -0.118878 0)
(0.290154 -0.209311 0)
(0.132716 -0.338304 0)
(0.0384078 -0.340207 0)
(0.241978 0.109244 0)
(0.313789 0.0972777 0)
(0.4448 0.0570398 0)
(0.550027 0.035094 0)
(0.624145 0.0236593 0)
(0.679217 0.0165951 0)
(0.722586 0.0118682 0)
(0.757463 0.00861747 0)
(0.785471 0.00623881 0)
(0.807445 0.00428647 0)
(0.823569 0.00244184 0)
(0.833443 0.000485921 0)
(0.836155 -0.00176435 0)
(0.830225 -0.00446106 0)
(0.813267 -0.00793202 0)
(0.781305 -0.012862 0)
(0.725959 -0.0213028 0)
(0.630072 -0.038215 0)
(0.459318 -0.0857645 0)
(0.30487 -0.125738 0)
)
;

boundaryField
{
    movingWall
    {
        type            calculated;
        value           uniform (1 0 0);
    }
    fixedWalls
    {
        type            calculated;
        value           uniform (0 0 0);
    }
    frontAndBack
    {
        type            empty;
    }
}


// ************************************************************************* //
