/*--------------------------------*- C++ -*----------------------------------*\
  =========                 |
  \\      /  F ield         | OpenFOAM: The Open Source CFD Toolbox
   \\    /   O peration     | Website:  https://openfoam.org
    \\  /    A nd           | Version:  13
     \\/     M anipulation  |
\*---------------------------------------------------------------------------*/
FoamFile
{
    format      ascii;
    class       surfaceScalarField;
    location    "32";
    object      phi;
}
// * * * * * * * * * * * * * * * * * * * * * * * * * * * * * * * * * * * * * //

dimensions      [0 3 -1 0 0 0 0];

internalField   nonuniform List<scalar> 
760
(
4.35206e-06
-4.35203e-06
-3.88867e-05
4.32391e-05
-0.000130862
9.19754e-05
-0.000255784
0.000124923
-0.000397855
0.00014207
-0.000543789
0.000145935
-0.000681822
0.000138032
-0.000800343
0.000118521
-0.000887339
8.69973e-05
-0.000931075
4.37363e-05
-0.000921967
-9.10714e-06
-0.000855314
-6.66518e-05
-0.00073408
-0.000121234
-0.000570772
-0.000163307
-0.000387289
-0.000183482
-0.000211932
-0.000175357
-7.35621e-05
-0.00013837
6.18198e-06
-7.97442e-05
2.22386e-05
-1.6056e-05
2.22383e-05
-4.69775e-05
4.2625e-05
-0.000207949
0.00020421
-0.000469702
0.000353729
-0.000799875
0.000455096
-0.00116447
0.00050666
-0.00153219
0.000513661
-0.00187383
0.000479675
-0.0021608
0.000405485
-0.002365
0.000291201
-0.00246086
0.0001396
-0.00242928
-4.06815e-05
-0.00226273
-0.000233206
-0.00197018
-0.000413773
-0.00158018
-0.000553314
-0.00114003
-0.000623625
-0.000709946
-0.000605443
-0.000351438
-0.000496877
-0.000111672
-0.000319509
-6.26566e-06
-0.000121463
1.5972e-05
-0.000110857
0.000153483
-0.000401904
0.000495258
-0.00082742
0.000779244
-0.00133877
0.000966447
-0.00188942
0.00105731
-0.00243625
0.0010605
-0.00293837
0.000981793
-0.00335587
0.000822984
-0.00365037
0.000585702
-0.00378784
0.00027708
-0.00374348
-8.50395e-05
-0.00350765
-0.000469031
-0.00309176
-0.000829668
-0.00253215
-0.00111292
-0.00189013
-0.00126564
-0.00124576
-0.00124982
-0.000684152
-0.00105848
-0.000275502
-0.00072816
-5.34703e-05
-0.000343496
-3.74982e-05
-0.000171606
0.000325088
-0.000588168
0.00091182
-0.00116829
0.00135936
-0.00184464
0.0016428
-0.00255971
0.00177238
-0.00326227
0.00176306
-0.00390422
0.00162374
-0.00443873
0.0013575
-0.0048208
0.000967767
-0.00501005
0.000466332
-0.00497573
-0.00011936
-0.00470297
-0.00074179
-0.00419963
-0.001333
-0.00350224
-0.00181031
-0.00267875
-0.00208914
-0.00182481
-0.00210376
-0.00105028
-0.00183302
-0.000455467
-0.00132297
-0.000103271
-0.000695693
-0.00014077
-0.00022572
0.000550808
-0.000755857
0.00144196
-0.00147618
0.00207968
-0.00230123
0.00246785
-0.00316394
0.00263509
-0.00400775
0.00260686
-0.00478075
0.00239674
-0.00543254
0.0020093
-0.00591379
0.00144901
-0.00617832
0.000730867
-0.0061875
-0.000110183
-0.00591646
-0.00101283
-0.00536244
-0.00188703
-0.00455386
-0.00261889
-0.00355831
-0.00308469
-0.00248436
-0.00317771
-0.00147098
-0.00284639
-0.00066013
-0.00213383
-0.000157542
-0.00119828
-0.000298312
-0.000271482
0.00082229
-0.000898681
0.00206916
-0.00173985
0.00292085
-0.0026941
0.0034221
-0.00368703
0.00362802
-0.00465928
0.00357911
-0.00555813
0.00329559
-0.0063324
0.00278356
-0.00693036
0.00204697
-0.00730034
0.00110085
-0.0073939
-1.66276e-05
-0.00717145
-0.00123528
-0.0066122
-0.00244627
-0.0057271
-0.00350399
-0.00457394
-0.00423785
-0.0032686
-0.00448305
-0.00198198
-0.00413301
-0.00091116
-0.00320464
-0.000223812
-0.00188563
-0.000522124
-0.000307104
0.00112939
-0.00101068
0.00277274
-0.00194809
0.00385826
-0.00300676
0.00448077
-0.00410758
0.00472884
-0.00519099
0.00466252
-0.00620625
0.00431085
-0.00710419
0.0036815
-0.00783308
0.00277586
-0.00833711
0.00160487
-0.00855736
0.00020363
-0.00843696
-0.00135568
-0.00793057
-0.00295266
-0.00702146
-0.0044131
-0.00574455
-0.00551476
-0.0042108
-0.00601681
-0.0026192
-0.00572461
-0.00123411
-0.00458973
-0.000311517
-0.00280822
-0.000833642
-0.000330749
0.00146014
-0.00108596
0.00352795
-0.0020893
0.00486159
-0.00322049
0.00561196
-0.00439834
0.00590668
-0.0055655
0.00582968
-0.00667593
0.00542128
-0.00768562
0.00469119
-0.00854617
0.00363642
-0.00920079
0.00225949
-0.00958282
0.000585654
-0.00961818
-0.00132031
-0.00923399
-0.00333685
-0.00837671
-0.00527039
-0.00704209
-0.00684938
-0.00531527
-0.00774363
-0.00340718
-0.0076327
-0.00165347
-0.00634344
-0.000431018
-0.00403068
-0.00126466
-0.000341178
0.00180132
-0.00112011
0.00430687
-0.00215367
0.00589515
-0.00331738
0.00677566
-0.00453015
0.00711946
-0.00573902
0.00703854
-0.00690528
0.00658755
-0.00799354
0.00577945
-0.0089632
0.00460607
-0.00976197
0.00305827
-0.0103214
0.00114508
-0.0105556
-0.00108609
-0.0103663
-0.00352618
-0.00965808
-0.0059786
-0.00837151
-0.00813594
-0.00653735
-0.00957779
-0.00434526
-0.00982478
-0.00218761
-0.0085011
-0.000593229
-0.00562506
-0.00185789
-0.000338845
0.00214016
-0.00111284
0.00508087
-0.00213726
0.00691957
-0.00328575
0.00792415
-0.00447917
0.00831288
-0.00567083
0.0082302
-0.0068319
0.00774862
-0.0079392
0.00688675
-0.00896514
0.00563202
-0.00986919
0.00396232
-0.0105904
0.00186624
-0.0110413
-0.000635179
-0.0111075
-0.00345995
-0.0106548
-0.00643126
-0.00955838
-0.00923239
-0.00776401
-0.0113722
-0.00539024
-0.0121986
-0.00284094
-0.0110504
-0.000809032
-0.00765697
-0.00266692
-0.000327378
0.00246754
-0.00107154
0.00582502
-0.00204729
0.00789533
-0.00312738
0.00900424
-0.00423631
0.00942181
-0.00533585
0.00932974
-0.00640967
0.00882243
-0.00745025
0.00792733
-0.00844812
0.00662988
-0.00938209
0.00489628
-0.0102096
0.00269378
-0.0108554
1.06233e-05
-0.011206
-0.00310934
-0.0111015
-0.00653584
-0.0103541
-0.00997972
-0.00880309
-0.0129232
-0.00643762
-0.014564
-0.00359147
-0.0138966
-0.00108761
-0.0101608
-0.00375453
-0.00031552
0.00278306
-0.00101541
0.00652491
-0.00190799
0.00878792
-0.00286458
0.00996083
-0.00381623
0.0103735
-0.00473675
0.0102503
-0.00562546
0.00971114
-0.00649361
0.00879548
-0.00735373
0.00749
-0.00820997
0.00575252
-0.00904743
0.00353125
-0.00982038
0.000783566
-0.0104323
-0.00249742
-0.0107247
-0.00624344
-0.0104674
-0.010237
-0.00939173
-0.0139989
-0.00730923
-0.0166465
-0.00437414
-0.0168316
-0.00143238
-0.0131026
-0.00518691
-0.000319876
0.00310294
-0.000980284
0.00718532
-0.00176556
0.0095732
-0.00254486
0.0107401
-0.00326219
0.0110908
-0.00391006
0.0108981
-0.00450802
0.0103091
-0.00508883
0.00937628
-0.00568893
0.0080901
-0.00634049
0.00640409
-0.00706212
0.00425287
-0.00784584
0.00156728
-0.00863651
-0.00170675
-0.00930538
-0.00557457
-0.00961894
-0.0099234
-0.0092304
-0.0143875
-0.00775734
-0.0181196
-0.00506443
-0.0195245
-0.0018329
-0.0163341
-0.00701981
-0.000369396
0.00347233
-0.00102395
0.00783987
-0.00169046
0.0102397
-0.00223892
0.0112886
-0.00264037
0.0114922
-0.00291791
0.0111757
-0.00311815
0.0105093
-0.00329771
0.00955584
-0.00351662
0.00830902
-0.00383357
0.00672103
-0.00429992
0.00471922
-0.00494977
0.00221713
-0.00578162
-0.000874902
-0.00672653
-0.00462965
-0.0075977
-0.00905223
-0.00803236
-0.0139528
-0.00748836
-0.0186636
-0.00546904
-0.0215439
-0.00225058
-0.0195526
-0.0092704
-0.000512112
0.00398445
-0.00122976
0.00855752
-0.00176999
0.0107799
-0.00202106
0.0115397
-0.00200999
0.0114812
-0.00180968
0.0109754
-0.00150267
0.0102023
-0.00117146
0.00922464
-0.000897254
0.00803481
-0.000760239
0.00658401
-0.000838646
0.00479763
-0.00120437
0.00258286
-0.00191139
-0.000167883
-0.00296867
-0.00357238
-0.00428333
-0.00773757
-0.0055604
-0.0126757
-0.00619085
-0.0180331
-0.00532244
-0.0224123
-0.00259608
-0.0222789
-0.0118665
-0.000817297
0.00480174
-0.00169324
0.00943346
-0.00206277
0.0111495
-0.00189351
0.0113704
-0.00132549
0.0109131
-0.00050858
0.0101584
0.000429911
0.00926384
0.00138186
0.00827268
0.00224983
0.00716685
0.00293968
0.00589416
0.0033556
0.00438171
0.00339811
0.00254035
0.00296698
0.000263238
0.0019762
-0.0025816
0.000398785
-0.00616014
-0.00161901
-0.0106579
-0.00354328
-0.0161089
-0.00427886
-0.0216767
-0.00269518
-0.0238626
-0.0145617
-0.00135202
0.00615376
-0.00242904
0.0105105
-0.00240476
0.0111252
-0.00152469
0.0104903
-0.000143637
0.00953209
0.00148814
0.00852667
0.00320195
0.00755004
0.0048746
0.00660004
0.00640481
0.00563664
0.00769711
0.00460186
0.0086509
0.00342792
0.00915325
0.002038
0.00907439
0.000342089
0.00827015
-0.00177736
0.00660116
-0.00449115
0.00401863
-0.00807541
0.000819266
-0.0129095
-0.00189987
-0.0189576
-0.0022617
-0.0235008
-0.0168234
-0.0021358
0.00828956
-0.00292574
0.0113004
-0.0016968
0.00989625
0.000517672
0.00827586
0.00309044
0.00695932
0.00573181
0.0058853
0.00828935
0.0049925
0.0106668
0.00422258
0.0127901
0.0035134
0.0145857
0.00280623
0.0159678
0.0020458
0.0168293
0.00117656
0.0170326
0.000138713
0.0164056
-0.00115031
0.0147321
-0.00281763
0.0117771
-0.00512047
0.00745003
-0.00858242
0.00243858
-0.0139461
-0.000887932
-0.0201743
-0.0177113
-0.00248624
0.0107758
-1.12109e-05
0.00882538
0.00417663
0.0057084
0.00832229
0.00413021
0.0121112
0.00317038
0.0155131
0.00248341
0.0185295
0.00197614
0.0211665
0.00158556
0.0234211
0.0012588
0.0252709
0.000956435
0.026669
0.000647741
0.0275375
0.000308044
0.0277628
-8.66235e-05
0.0271848
-0.000572319
0.0255655
-0.00119834
0.0225432
-0.0020981
0.0176154
-0.00365467
0.0103987
-0.00672934
0.00247336
-0.012249
-0.0152379
0.0107758
0.0196012
0.0253096
0.0294398
0.0326102
0.0350936
0.0370697
0.0386553
0.0399141
0.0408705
0.0415183
0.0418263
0.0417397
0.0411674
0.039969
0.0378709
0.0342163
0.0274869
0.0152379
)
;

boundaryField
{
    movingWall
    {
        type            calculated;
        value           uniform 0;
    }
    fixedWalls
    {
        type            calculated;
        value           uniform 0;
    }
    frontAndBack
    {
        type            empty;
    }
}


// ************************************************************************* //
