/*--------------------------------*- C++ -*----------------------------------*\
  =========                 |
  \\      /  F ield         | OpenFOAM: The Open Source CFD Toolbox
   \\    /   O peration     | Website:  https://openfoam.org
    \\  /    A nd           | Version:  13
     \\/     M anipulation  |
\*---------------------------------------------------------------------------*/
FoamFile
{
    format      ascii;
    class       volScalarField;
    location    "29";
    object      p;
}
// * * * * * * * * * * * * * * * * * * * * * * * * * * * * * * * * * * * * * //

dimensions      [0 2 -2 0 0 0 0];

internalField   nonuniform List<scalar> 
400
(
4.80997e-07
-0.000571997
-0.00121559
-0.00171846
-0.00195879
-0.00188427
-0.00147006
-0.000705098
0.000401726
0.00180638
0.00341511
0.00507544
0.00659147
0.00775153
0.00838023
0.00839606
0.00785578
0.00696934
0.00604846
0.00549479
0.000570369
-1.98998e-05
-0.000569273
-0.000956625
-0.0011316
-0.00106157
-0.000725564
-0.000108822
0.000789198
0.00193988
0.00327021
0.00466055
0.00594113
0.00693024
0.00747468
0.00750223
0.00705966
0.00631929
0.00554371
0.00497309
0.00124612
0.000493388
-8.6318e-05
-0.000440958
-0.000605738
-0.000575879
-0.000336867
0.000133006
0.000850117
0.00180732
0.00295528
0.00419222
0.00536487
0.00629426
0.0068197
0.00685335
0.00642121
0.00566864
0.00480939
0.00403764
0.00174101
0.000764114
7.40689e-05
-0.000321536
-0.00053671
-0.00059232
-0.000477816
-0.000159739
0.000400455
0.00122252
0.00228213
0.00349331
0.00470216
0.00571018
0.00631986
0.00639862
0.00593398
0.00505104
0.00394887
0.0028449
0.00179589
0.000596159
-0.000227276
-0.00070441
-0.00101772
-0.00120681
-0.00125893
-0.00112257
-0.000730055
-2.73751e-05
0.000992215
0.00226407
0.00363054
0.00486172
0.00569916
0.00593281
0.00548089
0.00443598
0.00300042
0.00146258
0.00119512
-0.000202587
-0.00116284
-0.00175227
-0.00221098
-0.00259023
-0.00286881
-0.00297074
-0.00279145
-0.00223244
-0.00124357
0.000151018
0.00179335
0.00342034
0.00469072
0.00527523
0.00497241
0.00380618
0.00197951
-0.000103544
-0.00024119
-0.00179965
-0.00289179
-0.00362176
-0.00427724
-0.00491617
-0.00550459
-0.00593704
-0.00606405
-0.00572793
-0.00480639
-0.00328465
-0.00126981
0.000947217
0.00292681
0.00417038
0.00427978
0.00313606
0.000903128
-0.00185574
-0.00265148
-0.00432589
-0.00554078
-0.00643879
-0.00734662
-0.00832723
-0.00933337
-0.0102282
-0.0108107
-0.0108499
-0.010133
-0.00853844
-0.00610651
-0.00311171
-8.58844e-05
0.00225558
0.00321318
0.00239581
-0.000176841
-0.00375242
-0.00612087
-0.00786122
-0.00918424
-0.0102713
-0.0114825
-0.0128888
-0.0144339
-0.0159523
-0.017189
-0.0178271
-0.0175348
-0.0160422
-0.0132525
-0.00935693
-0.00493547
-0.00094086
0.00150862
0.00155512
-0.00113662
-0.00564626
-0.010671
-0.0124231
-0.013827
-0.0151015
-0.0166416
-0.0185352
-0.0207266
-0.0230299
-0.0251398
-0.0266485
-0.0270835
-0.0259769
-0.0230336
-0.0182535
-0.0121672
-0.00592157
-0.00114174
0.000603563
-0.00173085
-0.00719461
-0.01626
-0.0179648
-0.0193952
-0.0208056
-0.0226409
-0.0250228
-0.0279107
-0.0311109
-0.0342769
-0.0369132
-0.0383947
-0.038006
-0.0352835
-0.0298329
-0.0220045
-0.0130058
-0.00495926
-0.000375026
-0.00151549
-0.00772014
-0.0228024
-0.0243895
-0.0257421
-0.0271479
-0.0291429
-0.03191
-0.0354418
-0.0395487
-0.0438542
-0.047784
-0.0505793
-0.0513765
-0.0491628
-0.0433934
-0.0339883
-0.0219771
-0.00980537
-0.00102423
0.000280575
-0.00599947
-0.030222
-0.0315857
-0.032669
-0.0337915
-0.0356675
-0.0385793
-0.0425683
-0.0474544
-0.0528336
-0.058062
-0.0622504
-0.0643099
-0.0630216
-0.0573314
-0.0466922
-0.0317044
-0.0148005
-0.00041654
0.00496613
2.3322e-05
-0.0385594
-0.0394889
-0.0399607
-0.0403264
-0.0416344
-0.044309
-0.0484449
-0.0538587
-0.0601052
-0.0664648
-0.0719288
-0.0752209
-0.0748697
-0.0694208
-0.0578064
-0.0400015
-0.0180227
0.00328006
0.0146991
0.0135562
-0.0481742
-0.0481564
-0.0474029
-0.0462836
-0.0464115
-0.0483707
-0.0522809
-0.0579125
-0.0647388
-0.0719347
-0.07836
-0.0825606
-0.0828316
-0.0773733
-0.0646447
-0.0439365
-0.0165429
0.0130194
0.0329316
0.0392812
-0.0602344
-0.0579571
-0.0548667
-0.0512129
-0.0494266
-0.0501779
-0.0535198
-0.0590931
-0.0662194
-0.0739181
-0.0808788
-0.0854528
-0.0857064
-0.0795193
-0.0649414
-0.0406108
-0.0069784
0.0328173
0.0647942
0.0836773
-0.0774809
-0.0694727
-0.0620869
-0.0545489
-0.0501385
-0.0493246
-0.0519039
-0.0572605
-0.0644856
-0.0723844
-0.0794394
-0.0837778
-0.0832179
-0.0752825
-0.0576209
-0.0282108
0.0133529
0.0666614
0.115753
0.154808
-0.108925
-0.0850396
-0.0697729
-0.0563911
-0.0485406
-0.0458807
-0.0476238
-0.0527145
-0.0599166
-0.0677765
-0.0745518
-0.0781395
-0.0761039
-0.0655421
-0.0436428
-0.00744466
0.0447435
0.114933
0.188079
0.263281
-0.168693
-0.100745
-0.0730927
-0.0522877
-0.0413098
-0.0376993
-0.0394415
-0.0448649
-0.0524153
-0.0604464
-0.0670734
-0.0700473
-0.066687
-0.0537879
-0.0278894
0.0154103
0.080072
0.17276
0.285855
0.445986
-0.402754
-0.13903
-0.0734587
-0.0447297
-0.0305714
-0.0266171
-0.0290851
-0.035373
-0.0436536
-0.0522069
-0.0591235
-0.0621451
-0.058617
-0.0452136
-0.0174504
0.0310791
0.108496
0.236657
0.427488
0.79368
)
;

boundaryField
{
    movingWall
    {
        type            zeroGradient;
    }
    fixedWalls
    {
        type            zeroGradient;
    }
    frontAndBack
    {
        type            empty;
    }
}


// ************************************************************************* //
