/*--------------------------------*- C++ -*----------------------------------*\
  =========                 |
  \\      /  F ield         | OpenFOAM: The Open Source CFD Toolbox
   \\    /   O peration     | Website:  https://openfoam.org
    \\  /    A nd           | Version:  13
     \\/     M anipulation  |
\*---------------------------------------------------------------------------*/
FoamFile
{
    format      ascii;
    class       surfaceScalarField;
    location    "29";
    object      phi_0;
}
// * * * * * * * * * * * * * * * * * * * * * * * * * * * * * * * * * * * * * //

dimensions      [0 3 -1 0 0 0 0];

internalField   nonuniform List<scalar> 
760
(
4.07041e-06
-4.07e-06
-3.88904e-05
4.29607e-05
-0.000129999
9.11085e-05
-0.000253646
0.000123646
-0.000394195
0.000140549
-0.000538498
0.000144303
-0.000674927
0.000136428
-0.000792038
0.000117112
-0.000878015
8.59786e-05
-0.000921317
4.3304e-05
-0.00091251
-8.80645e-06
-0.000846935
-6.55738e-05
-0.000727453
-0.000119482
-0.00056631
-0.000161143
-0.00038502
-0.00018129
-0.000211467
-0.000173552
-7.419e-05
-0.000137276
5.28409e-06
-7.94747e-05
2.17184e-05
-1.64353e-05
2.17178e-05
-4.65702e-05
4.25002e-05
-0.000205736
0.000202126
-0.000464536
0.000349908
-0.00079094
0.00045005
-0.00115133
0.000500939
-0.0015148
0.000507772
-0.00185251
0.000474138
-0.00213627
0.000400875
-0.00233841
0.000288124
-0.00243371
0.000138601
-0.00240326
-3.92526e-05
-0.0022395
-0.000229327
-0.00195115
-0.000407836
-0.00156616
-0.00054613
-0.00113113
-0.000616317
-0.000705482
-0.000599206
-0.000350107
-0.000492653
-0.000111903
-0.00031768
-6.74466e-06
-0.000121596
1.49724e-05
-0.000109484
0.000151985
-0.000396968
0.00048961
-0.0008173
0.000770239
-0.00132248
0.000955231
-0.00186656
0.00104502
-0.00240697
0.00104818
-0.00290336
0.000970525
-0.00331637
0.000813893
-0.00360816
0.000579916
-0.0037451
0.000275545
-0.00370258
-8.17754e-05
-0.00347087
-0.000461033
-0.00306098
-0.000817728
-0.00250857
-0.00109854
-0.00187401
-0.00125087
-0.00123638
-0.00123684
-0.000679947
-0.00104909
-0.000274424
-0.000723206
-5.35939e-05
-0.000342428
-3.86216e-05
-0.000169244
0.000321229
-0.000580459
0.000900824
-0.00115329
0.00134307
-0.00182136
0.0016233
-0.00252789
0.00175156
-0.00322235
0.00174264
-0.00385724
0.00160542
-0.00438639
0.00134304
-0.0047653
0.000958825
-0.004954
0.00046425
-0.00492191
-0.000113869
-0.00465404
-0.000728908
-0.00415784
-0.00131392
-0.00346915
-0.00178723
-0.00265498
-0.00206505
-0.00180985
-0.00208196
-0.00104257
-0.00181638
-0.000452672
-0.0013131
-0.000102908
-0.000692191
-0.00014153
-0.00022252
0.00054375
-0.000745839
0.00142414
-0.00145719
0.00205443
-0.00227235
0.00243845
-0.00312512
0.00260433
-0.00395966
0.00257718
-0.00472473
0.00237049
-0.00537053
0.00198884
-0.00584822
0.00143651
-0.00611196
0.000727996
-0.0061233
-0.00010253
-0.00585726
-0.000994949
-0.00531077
-0.0018604
-0.00451172
-0.00258628
-0.00352681
-0.00304995
-0.00246348
-0.00314528
-0.00145941
-0.00282045
-0.000655401
-0.00211711
-0.000156637
-0.00119096
-0.000298169
-0.000267742
0.000811493
-0.000887218
0.00204362
-0.00171844
0.00288565
-0.00266191
0.00338192
-0.00364418
0.0035866
-0.00460662
0.00353962
-0.00549714
0.00326101
-0.00626507
0.00275676
-0.00685909
0.00203052
-0.00722779
0.0010967
-0.00732302
-7.30673e-06
-0.00710496
-0.001213
-0.00655283
-0.00241253
-0.00567722
-0.00346189
-0.00453528
-0.00419189
-0.00324184
-0.00443873
-0.00196635
-0.00409594
-0.000904333
-0.00317913
-0.000222306
-0.00187298
-0.000520476
-0.000303242
0.00111474
-0.000998951
0.00273933
-0.0019263
0.003813
-0.0029742
0.00442981
-0.00406448
0.00467687
-0.00513827
0.00461342
-0.00614538
0.00426812
-0.00703704
0.00364842
-0.00776182
0.0027553
-0.00826411
0.00159899
-0.008485
0.000213581
-0.0083679
-0.00133011
-0.00786738
-0.00291305
-0.00696669
-0.00436258
-0.00570047
-0.00545811
-0.00417893
-0.00596027
-0.00259968
-0.00567519
-0.0012251
-0.00455371
-0.000309342
-0.00278875
-0.000829818
-0.000327257
0.00144199
-0.00107532
0.00348739
-0.00206951
0.00480719
-0.00319094
0.00555123
-0.00435929
0.00584523
-0.00551787
0.005772
-0.00662107
0.00537131
-0.00762514
0.00465249
-0.00848184
0.00361201
-0.00913444
0.0022516
-0.00951629
0.000595423
-0.00955343
-0.00129297
-0.00917312
-0.00329336
-0.00832203
-0.00521366
-0.00699614
-0.006784
-0.00528036
-0.00767605
-0.0033846
-0.00757095
-0.00164243
-0.00629588
-0.000428123
-0.00400305
-0.00125794
-0.000338559
0.00178055
-0.00111194
0.00426077
-0.00213831
0.00583355
-0.00329427
0.0067072
-0.00449958
0.00705054
-0.0057018
0.00697423
-0.0068626
0.0065321
-0.00794669
0.00573658
-0.00891347
0.00457878
-0.00971053
0.00304866
-0.0102693
0.00115417
-0.0105038
-0.00105843
-0.0103159
-0.00348125
-0.00961073
-0.00591887
-0.00832937
-0.00806537
-0.00650314
-0.00950228
-0.0043215
-0.00975259
-0.0021751
-0.00844227
-0.000589638
-0.00558851
-0.00184758
-0.000337534
0.00211809
-0.00110838
0.00503162
-0.00212846
0.00685363
-0.00327218
0.00785092
-0.00446106
0.00823942
-0.00564887
0.00816204
-0.00680704
0.00769028
-0.00791241
0.00684194
-0.0089372
0.00560358
-0.00984057
0.00395203
-0.0105612
0.00187476
-0.0110114
-0.000608151
-0.0110767
-0.00341593
-0.0106234
-0.00637222
-0.00952742
-0.00916133
-0.00773599
-0.0112937
-0.00536851
-0.0121201
-0.00282821
-0.0109826
-0.000804925
-0.0076118
-0.00265251
-0.000327673
0.00244576
-0.00107165
0.00577559
-0.00204663
0.00782862
-0.00312562
0.00892991
-0.00423359
0.00934738
-0.00533266
0.00926111
-0.00640668
0.00876429
-0.00744806
0.00788332
-0.00844702
0.00660254
-0.00938189
0.00488689
-0.0102095
0.00270237
-0.0108545
3.68805e-05
-0.0112023
-0.00306812
-0.0110937
-0.00648089
-0.0103419
-0.00991316
-0.00878761
-0.012848
-0.00642228
-0.0144854
-0.00358056
-0.0138243
-0.0010834
-0.010109
-0.00373591
-0.000317523
0.00276328
-0.00102046
0.00647853
-0.00191619
0.00872435
-0.0028757
0.00988942
-0.00383024
0.0103019
-0.00475382
0.0101847
-0.00564586
0.00965633
-0.00651747
0.00875493
-0.00738084
0.00746591
-0.00823961
0.00574567
-0.00907833
0.00354109
-0.00985004
0.000808588
-0.0104585
-0.00245962
-0.0107446
-0.0061948
-0.0104789
-0.0101789
-0.00939414
-0.0139327
-0.00730479
-0.0165747
-0.00436768
-0.0167614
-0.00142877
-0.0130479
-0.00516468
-0.00032347
0.00308675
-0.00099004
0.0071451
-0.00178229
0.00951659
-0.00256844
0.0106756
-0.00329231
0.0110258
-0.00394639
0.0108388
-0.00455025
0.0102602
-0.00513642
0.00934111
-0.00574109
0.00807058
-0.00639601
0.00640059
-0.00711926
0.00426434
-0.00790217
0.0015915
-0.00868917
-0.00167263
-0.00935093
-0.00553304
-0.00965397
-0.00987588
-0.00925255
-0.0143341
-0.00776676
-0.0180605
-0.0050649
-0.0194633
-0.00183075
-0.016282
-0.00699543
-0.000374239
0.00346099
-0.00103752
0.00780838
-0.00171426
0.0101933
-0.00227293
0.0112342
-0.00268393
0.0114368
-0.00297007
0.0111249
-0.00317776
0.0104679
-0.00336343
0.00952678
-0.00358695
0.00829409
-0.00390679
0.00672043
-0.00437415
0.0047317
-0.00502285
0.0022402
-0.00585101
-0.000844458
-0.00678916
-0.00459489
-0.00765001
-0.00901504
-0.00807088
-0.0139132
-0.00751115
-0.0186203
-0.0054776
-0.0214968
-0.00225078
-0.0195088
-0.00924621
-0.000517614
0.0039786
-0.00124556
0.00853633
-0.0017982
0.010746
-0.00206181
0.0114979
-0.0020623
0.0114373
-0.00187194
0.0109346
-0.00157289
0.0101688
-0.00124745
0.00920134
-0.000976752
0.00802339
-0.000841084
0.00658476
-0.000918866
0.00480949
-0.00128219
0.00260352
-0.00198509
-0.000141571
-0.00303623
-0.00354375
-0.00434214
-0.00770913
-0.00560717
-0.0126482
-0.00622244
-0.018005
-0.00533798
-0.0223813
-0.00259929
-0.0222475
-0.0118455
-0.000822524
0.00480113
-0.00170879
0.0094226
-0.00209127
0.0111284
-0.00193537
0.011342
-0.00137966
0.0108816
-0.000573057
0.010128
0.000357676
0.00923808
0.00130467
0.00825434
0.00217046
0.0071576
0.00286067
0.00589456
0.00327904
0.00439113
0.00332556
0.00255701
0.00289953
0.000284462
0.00191471
-0.00255893
0.00034443
-0.00613886
-0.00166424
-0.0106395
-0.00357654
-0.0160927
-0.00429782
-0.02166
-0.00270116
-0.0238442
-0.0145467
-0.00135559
0.00615672
-0.00244096
0.010508
-0.00242794
0.0111154
-0.00156012
0.0104741
-0.0001907
0.00951214
0.00143119
0.00850609
0.00313756
0.00753171
0.00480561
0.00658629
0.00633414
0.00562907
0.00762746
0.00460124
0.00858453
0.00343406
0.00909184
0.0020497
0.00901897
0.000357331
0.00822108
-0.00176104
0.0065585
-0.00447627
0.00398275
-0.00806377
0.000791496
-0.0129014
-0.00191761
-0.0189509
-0.0022682
-0.0234936
-0.0168149
-0.00213636
0.00829308
-0.00293072
0.0113023
-0.00170917
0.00989385
0.000496121
0.00826886
0.00305923
0.00694903
0.00569163
0.00587369
0.00824178
0.00498155
0.0106141
0.00421395
0.0127349
0.00350827
0.0145307
0.00280544
0.0159154
0.00204935
0.0167815
0.00118364
0.016991
0.000147864
0.0163707
-0.00114075
0.0147037
-0.00280934
0.0117545
-0.00511457
0.00743258
-0.00857948
0.00242664
-0.0139449
-0.000893355
-0.0201736
-0.0177082
-0.00248444
0.0107775
-9.64126e-06
0.00882753
0.0041757
0.00570851
0.00831643
0.00412813
0.0120988
0.00316669
0.0154934
0.00247905
0.0185029
0.00197207
0.0211343
0.00158253
0.0233853
0.00125729
0.025234
0.000956691
0.0266338
0.000649552
0.0275065
0.00031101
0.0277372
-8.2908e-05
0.0271652
-0.000568745
0.0255514
-0.00119548
0.0225335
-0.0020967
0.0176088
-0.0036548
0.0103941
-0.00673017
0.00247052
-0.0122501
-0.0152377
0.0107775
0.019605
0.0253136
0.0294417
0.0326084
0.0350874
0.0370595
0.038642
0.0398993
0.040856
0.0415056
0.0418166
0.0417337
0.0411649
0.0399694
0.0378727
0.0342179
0.0274878
0.0152377
)
;

boundaryField
{
    movingWall
    {
        type            calculated;
        value           uniform 0;
    }
    fixedWalls
    {
        type            calculated;
        value           uniform 0;
    }
    frontAndBack
    {
        type            empty;
    }
}


// ************************************************************************* //
