/*--------------------------------*- C++ -*----------------------------------*\
  =========                 |
  \\      /  F ield         | OpenFOAM: The Open Source CFD Toolbox
   \\    /   O peration     | Website:  https://openfoam.org
    \\  /    A nd           | Version:  13
     \\/     M anipulation  |
\*---------------------------------------------------------------------------*/
FoamFile
{
    format      ascii;
    class       volVectorField;
    location    "29";
    object      U;
}
// * * * * * * * * * * * * * * * * * * * * * * * * * * * * * * * * * * * * * //

dimensions      [0 1 -1 0 0 0 0];

internalField   nonuniform List<vector> 
400
(
(0.000175336 -0.000178997 0)
(-0.000147194 3.57366e-05 0)
(-0.00152439 0.000269987 0)
(-0.00374053 0.000419009 0)
(-0.00645457 0.000497444 0)
(-0.0093698 0.000526516 0)
(-0.0122404 0.000516019 0)
(-0.0148374 0.000465207 0)
(-0.0169264 0.000367771 0)
(-0.0182668 0.000218699 0)
(-0.0186389 2.13103e-05 0)
(-0.0178909 -0.000207378 0)
(-0.0159968 -0.000434269 0)
(-0.0131064 -0.00061395 0)
(-0.00956571 -0.000698846 0)
(-0.00588823 -0.000654425 0)
(-0.00266789 -0.00047389 0)
(-0.000438636 -0.000186513 0)
(0.000513032 0.000128313 0)
(0.000301221 0.000294383 0)
(-5.17158e-05 0.000145848 0)
(-0.00204599 0.00190691 0)
(-0.00632198 0.00369959 0)
(-0.0123569 0.00493787 0)
(-0.0194096 0.00558809 0)
(-0.0268208 0.00572539 0)
(-0.0339968 0.00540066 0)
(-0.0403683 0.00462172 0)
(-0.0453689 0.00338001 0)
(-0.0484532 0.00169451 0)
(-0.0491578 -0.000345286 0)
(-0.0471962 -0.00255123 0)
(-0.0425648 -0.00463469 0)
(-0.0356287 -0.00624137 0)
(-0.0271514 -0.00702505 0)
(-0.0182339 -0.00675012 0)
(-0.010142 -0.00539612 0)
(-0.00402995 -0.00323342 0)
(-0.000598244 -0.000876995 0)
(0.000211681 0.000561545 0)
(-0.000350974 0.0016978 0)
(-0.00439545 0.00635462 0)
(-0.0116335 0.0104814 0)
(-0.0211683 0.0132708 0)
(-0.0319306 0.0146752 0)
(-0.0430252 0.0148201 0)
(-0.0536302 0.0137954 0)
(-0.0629472 0.0116256 0)
(-0.0701917 0.00832479 0)
(-0.0746273 0.00398434 0)
(-0.0756448 -0.00114424 0)
(-0.0728747 -0.00659906 0)
(-0.0663113 -0.0117119 0)
(-0.0564169 -0.0156838 0)
(-0.0441691 -0.0177383 0)
(-0.0310086 -0.0173381 0)
(-0.0186455 -0.0144176 0)
(-0.00872408 -0.00955556 0)
(-0.00241751 -0.00405204 0)
(2.68109e-05 -1.43585e-05 0)
(-0.00062182 0.00451243 0)
(-0.00666026 0.0134122 0)
(-0.0167387 0.0205183 0)
(-0.0295194 0.0251366 0)
(-0.0436024 0.0273296 0)
(-0.0579155 0.0273126 0)
(-0.0714938 0.0252251 0)
(-0.0834 0.0211153 0)
(-0.0927142 0.0150342 0)
(-0.0985693 0.00716987 0)
(-0.100232 -0.00202955 0)
(-0.0972198 -0.0117818 0)
(-0.0894315 -0.0209733 0)
(-0.0772859 -0.0282676 0)
(-0.0618155 -0.0323329 0)
(-0.0446731 -0.032188 0)
(-0.0279734 -0.0276025 0)
(-0.0139339 -0.0194229 0)
(-0.00439924 -0.00968726 0)
(-0.000132265 -0.00155207 0)
(-0.00085512 0.00847646 0)
(-0.00868946 0.0228607 0)
(-0.0213529 0.0334946 0)
(-0.0370743 0.0401162 0)
(-0.054143 0.0430668 0)
(-0.0713532 0.0427252 0)
(-0.0876613 0.0393065 0)
(-0.102062 0.0328877 0)
(-0.113558 0.0235518 0)
(-0.121185 0.0115721 0)
(-0.124074 -0.00242308 0)
(-0.12156 -0.0173448 0)
(-0.113328 -0.031624 0)
(-0.0995928 -0.0433233 0)
(-0.0812784 -0.0504149 0)
(-0.0601394 -0.0512555 0)
(-0.0387027 -0.0452067 0)
(-0.0199269 -0.0332154 0)
(-0.00661381 -0.0180585 0)
(-0.000277632 -0.00410639 0)
(-0.00104816 0.0134368 0)
(-0.0104107 0.0344132 0)
(-0.0253017 0.0490765 0)
(-0.0435749 0.0578643 0)
(-0.0632578 0.0615662 0)
(-0.0830577 0.0608137 0)
(-0.101909 0.0559331 0)
(-0.118796 0.0470317 0)
(-0.132699 0.0342004 0)
(-0.142578 0.01775 0)
(-0.147413 -0.00157692 0)
(-0.146295 -0.0224496 0)
(-0.138571 -0.0428837 0)
(-0.124079 -0.060303 0)
(-0.103439 -0.0718211 0)
(-0.0783372 -0.0748252 0)
(-0.0516662 -0.0678696 0)
(-0.0272894 -0.0516697 0)
(-0.00934289 -0.0296885 0)
(-0.000451646 -0.00782586 0)
(-0.00119431 0.019213 0)
(-0.0117566 0.0477086 0)
(-0.0284212 0.0668422 0)
(-0.0487501 0.077965 0)
(-0.0705751 0.0824658 0)
(-0.0925661 0.08132 0)
(-0.113688 0.0750061 0)
(-0.132975 0.0636602 0)
(-0.149435 0.0473424 0)
(-0.161993 0.0263257 0)
(-0.16949 0.00136056 0)
(-0.170738 -0.0261027 0)
(-0.164662 -0.0537596 0)
(-0.150558 -0.0784106 0)
(-0.1285 -0.0961691 0)
(-0.0998362 -0.103086 0)
(-0.0676233 -0.0963336 0)
(-0.0366889 -0.0758045 0)
(-0.012948 -0.0454261 0)
(-0.000705181 -0.0130379 0)
(-0.00128551 0.0255896 0)
(-0.0126597 0.0623036 0)
(-0.030547 0.0862589 0)
(-0.052308 0.0998739 0)
(-0.0756485 0.105263 0)
(-0.0992474 0.103834 0)
(-0.12215 0.0962612 0)
(-0.143501 0.0827128 0)
(-0.162398 0.0631753 0)
(-0.177802 0.0377949 0)
(-0.188473 0.00719621 0)
(-0.192979 -0.0272197 0)
(-0.189797 -0.062995 0)
(-0.17757 -0.0964197 0)
(-0.155575 -0.122559 0)
(-0.124436 -0.135785 0)
(-0.0869488 -0.131156 0)
(-0.048713 -0.106785 0)
(-0.0178263 -0.0664446 0)
(-0.00110077 -0.020274 0)
(-0.00131711 0.0323179 0)
(-0.0130736 0.0776788 0)
(-0.0315496 0.106679 0)
(-0.0539856 0.12289 0)
(-0.0780228 0.129253 0)
(-0.10239 0.127691 0)
(-0.126258 0.11913 0)
(-0.14894 0.103783 0)
(-0.169707 0.0815314 0)
(-0.187651 0.0523131 0)
(-0.201569 0.0164878 0)
(-0.209905 -0.0247872 0)
(-0.210774 -0.0691475 0)
(-0.202147 -0.112618 0)
(-0.182318 -0.149349 0)
(-0.150735 -0.171847 0)
(-0.109266 -0.172299 0)
(-0.0636829 -0.145648 0)
(-0.0243824 -0.0941676 0)
(-0.00172089 -0.0302844 0)
(-0.00129511 0.0391361 0)
(-0.0130114 0.0932677 0)
(-0.0314007 0.127355 0)
(-0.0536419 0.146147 0)
(-0.0773588 0.153488 0)
(-0.101363 0.151905 0)
(-0.124995 0.142638 0)
(-0.147794 0.125979 0)
(-0.169291 0.101703 0)
(-0.188832 0.0694869 0)
(-0.205419 0.029311 0)
(-0.21757 -0.0181094 0)
(-0.223246 -0.0708003 0)
(-0.219894 -0.124912 0)
(-0.204771 -0.174065 0)
(-0.175777 -0.209043 0)
(-0.13303 -0.218606 0)
(-0.0813759 -0.192834 0)
(-0.0329745 -0.130084 0)
(-0.00267903 -0.0440477 0)
(-0.00124616 0.0458161 0)
(-0.012597 0.108523 0)
(-0.0302622 0.147495 0)
(-0.0513815 0.168636 0)
(-0.0735941 0.176781 0)
(-0.0958336 0.175145 0)
(-0.117654 0.165363 0)
(-0.138879 0.147863 0)
(-0.159382 0.122345 0)
(-0.178889 0.0882214 0)
(-0.196789 0.045034 0)
(-0.211928 -0.0070994 0)
(-0.222425 -0.0669088 0)
(-0.225519 -0.13115 0)
(-0.217635 -0.193572 0)
(-0.194979 -0.243841 0)
(-0.155167 -0.267279 0)
(-0.100643 -0.24752 0)
(-0.043787 -0.175388 0)
(-0.00413002 -0.0627631 0)
(-0.0012312 0.0522427 0)
(-0.0121303 0.123024 0)
(-0.0285873 0.166339 0)
(-0.0476826 0.189269 0)
(-0.0671015 0.197746 0)
(-0.0859674 0.195785 0)
(-0.104115 0.185493 0)
(-0.121714 0.167505 0)
(-0.139045 0.141507 0)
(-0.156309 0.106695 0)
(-0.173431 0.0621864 0)
(-0.189839 0.00742881 0)
(-0.204156 -0.0572343 0)
(-0.213874 -0.129669 0)
(-0.215077 -0.204593 0)
(-0.202545 -0.271665 0)
(-0.171004 -0.313625 0)
(-0.119008 -0.306872 0)
(-0.0565813 -0.230366 0)
(-0.00627262 -0.087792 0)
(-0.00136743 0.0585417 0)
(-0.0121729 0.136638 0)
(-0.0272238 0.183282 0)
(-0.0434945 0.206947 0)
(-0.0587822 0.214879 0)
(-0.0725404 0.212003 0)
(-0.0850007 0.200963 0)
(-0.0967487 0.182655 0)
(-0.108513 0.156815 0)
(-0.121009 0.122512 0)
(-0.134776 0.0785186 0)
(-0.149964 0.0236608 0)
(-0.166015 -0.0427141 0)
(-0.181186 -0.119944 0)
(-0.191945 -0.204552 0)
(-0.192399 -0.287671 0)
(-0.174676 -0.351327 0)
(-0.132452 -0.365485 0)
(-0.0703022 -0.293486 0)
(-0.00933119 -0.120475 0)
(-0.0018691 0.0652779 0)
(-0.0136676 0.149706 0)
(-0.0275005 0.197962 0)
(-0.0402431 0.220612 0)
(-0.0499887 0.226606 0)
(-0.0567992 0.221883 0)
(-0.0614942 0.209621 0)
(-0.0651624 0.190971 0)
(-0.0689958 0.165757 0)
(-0.0741984 0.133 0)
(-0.0818921 0.0912615 0)
(-0.0929703 0.0389055 0)
(-0.107834 -0.0255985 0)
(-0.12592 -0.103108 0)
(-0.144878 -0.192513 0)
(-0.159335 -0.287937 0)
(-0.159947 -0.373421 0)
(-0.135552 -0.415416 0)
(-0.0825875 -0.360342 0)
(-0.0134667 -0.161663 0)
(-0.00310716 0.0737478 0)
(-0.0180854 0.163252 0)
(-0.0312087 0.21027 0)
(-0.0395623 0.229171 0)
(-0.0420252 0.231234 0)
(-0.039774 0.223428 0)
(-0.0344959 0.209318 0)
(-0.0278805 0.190195 0)
(-0.0215692 0.165935 0)
(-0.0171743 0.135552 0)
(-0.0162834 0.0975246 0)
(-0.0204149 0.0499827 0)
(-0.0308786 -0.00916621 0)
(-0.0484401 -0.0819907 0)
(-0.0725475 -0.169766 0)
(-0.0996925 -0.270663 0)
(-0.120988 -0.373779 0)
(-0.121845 -0.44709 0)
(-0.0892525 -0.422971 0)
(-0.018467 -0.210912 0)
(-0.00559632 0.0864741 0)
(-0.0274103 0.179066 0)
(-0.040044 0.219984 0)
(-0.0420614 0.231031 0)
(-0.0343786 0.226569 0)
(-0.020139 0.214295 0)
(-0.00222577 0.19776 0)
(0.0170117 0.178118 0)
(0.0355493 0.155154 0)
(0.0514996 0.12786 0)
(0.0629835 0.0947298 0)
(0.0680607 0.0538837 0)
(0.0647265 0.00307121 0)
(0.051042 -0.0603887 0)
(0.0256083 -0.139526 0)
(-0.0109341 -0.236647 0)
(-0.0524908 -0.348381 0)
(-0.0839615 -0.450765 0)
(-0.0838038 -0.470287 0)
(-0.0231277 -0.266102 0)
(-0.00989704 0.108769 0)
(-0.0431791 0.199409 0)
(-0.0526976 0.225301 0)
(-0.042603 0.222623 0)
(-0.019026 0.208797 0)
(0.0118077 0.191049 0)
(0.045753 0.172055 0)
(0.0799958 0.152357 0)
(0.112377 0.131416 0)
(0.140991 0.108134 0)
(0.163921 0.081086 0)
(0.179069 0.0485704 0)
(0.184044 0.00854952 0)
(0.176115 -0.0415965 0)
(0.152318 -0.105548 0)
(0.110273 -0.188569 0)
(0.0513098 -0.295577 0)
(-0.0132425 -0.41736 0)
(-0.0571317 -0.488523 0)
(-0.0246991 -0.323647 0)
(-0.017781 0.151798 0)
(-0.0613502 0.223668 0)
(-0.0524908 0.217525 0)
(-0.0148316 0.194632 0)
(0.0346588 0.170641 0)
(0.0875728 0.148622 0)
(0.139962 0.128966 0)
(0.189565 0.111069 0)
(0.234804 0.0938698 0)
(0.274279 0.076167 0)
(0.306453 0.0566996 0)
(0.329446 0.034113 0)
(0.34086 0.00686549 0)
(0.337678 -0.0270429 0)
(0.316063 -0.0707711 0)
(0.2714 -0.130236 0)
(0.199475 -0.216311 0)
(0.102506 -0.338237 0)
(0.00406776 -0.456668 0)
(-0.0160292 -0.369146 0)
(-0.0241747 0.208375 0)
(-0.0378364 0.230468 0)
(0.0373174 0.17655 0)
(0.124985 0.136757 0)
(0.20557 0.108877 0)
(0.277523 0.0879916 0)
(0.341547 0.0719025 0)
(0.397961 0.0590131 0)
(0.446845 0.0479301 0)
(0.48797 0.0375157 0)
(0.520696 0.0268015 0)
(0.543773 0.0149222 0)
(0.555291 0.00099084 0)
(0.55257 -0.0160717 0)
(0.531764 -0.0381017 0)
(0.487373 -0.0690273 0)
(0.410904 -0.119054 0)
(0.290711 -0.209353 0)
(0.133029 -0.338296 0)
(0.0386948 -0.340327 0)
(0.241914 0.109166 0)
(0.313555 0.0971652 0)
(0.444463 0.0569891 0)
(0.549747 0.0351017 0)
(0.624085 0.0237118 0)
(0.679492 0.0166731 0)
(0.723226 0.0119476 0)
(0.758414 0.00867578 0)
(0.786627 0.0062572 0)
(0.808674 0.00425388 0)
(0.824735 0.00236501 0)
(0.834426 0.000382336 0)
(0.836872 -0.00187188 0)
(0.830631 -0.00456108 0)
(0.813376 -0.00801184 0)
(0.781192 -0.0128924 0)
(0.725767 -0.0212616 0)
(0.629914 -0.0381284 0)
(0.459277 -0.0855922 0)
(0.304886 -0.125704 0)
)
;

boundaryField
{
    movingWall
    {
        type            fixedValue;
        value           uniform (1 0 0);
    }
    fixedWalls
    {
        type            fixedValue;
        value           uniform (0 0 0);
    }
    frontAndBack
    {
        type            empty;
    }
}


// ************************************************************************* //
