/*--------------------------------*- C++ -*----------------------------------*\
  =========                 |
  \\      /  F ield         | OpenFOAM: The Open Source CFD Toolbox
   \\    /   O peration     | Website:  https://openfoam.org
    \\  /    A nd           | Version:  13
     \\/     M anipulation  |
\*---------------------------------------------------------------------------*/
FoamFile
{
    format      ascii;
    class       volVectorField;
    location    "29";
    object      U_0;
}
// * * * * * * * * * * * * * * * * * * * * * * * * * * * * * * * * * * * * * //

dimensions      [0 1 -1 0 0 0 0];

internalField   nonuniform List<vector> 
400
(
(0.000173972 -0.00017759 0)
(-0.000148865 3.67546e-05 0)
(-0.00152251 0.000270271 0)
(-0.00373183 0.000418894 0)
(-0.00643706 0.000497061 0)
(-0.0093424 0.000525882 0)
(-0.0122028 0.000515148 0)
(-0.0147903 0.000464171 0)
(-0.0168714 0.000366737 0)
(-0.0182071 0.000217903 0)
(-0.0185787 2.09958e-05 0)
(-0.0178349 -0.000207029 0)
(-0.0159498 -0.000433245 0)
(-0.0130719 -0.000612472 0)
(-0.00954526 -0.000697336 0)
(-0.00588063 -0.000653382 0)
(-0.00266954 -0.000473704 0)
(-0.00044434 -0.00018733 0)
(0.000507987 0.000126656 0)
(0.000299631 0.000292818 0)
(-5.25126e-05 0.000147465 0)
(-0.00203981 0.00190211 0)
(-0.00630135 0.00368833 0)
(-0.0123149 0.00492188 0)
(-0.0193426 0.00556927 0)
(-0.0267273 0.00570543 0)
(-0.0338775 0.00538132 0)
(-0.0402263 0.004605 0)
(-0.0452099 0.0033682 0)
(-0.0482855 0.0016898 0)
(-0.0489915 -0.000341371 0)
(-0.0470422 -0.00253833 0)
(-0.0424329 -0.00461407 0)
(-0.0355262 -0.00621605 0)
(-0.0270815 -0.00699937 0)
(-0.0181947 -0.00672871 0)
(-0.0101269 -0.00538261 0)
(-0.00402936 -0.00322913 0)
(-0.000602305 -0.000879979 0)
(0.000209818 0.000556343 0)
(-0.00035054 0.0016942 0)
(-0.00437872 0.00633409 0)
(-0.0115899 0.0104458 0)
(-0.0210889 0.0132249 0)
(-0.0318112 0.0146237 0)
(-0.0428651 0.0147675 0)
(-0.0534319 0.0137464 0)
(-0.0627164 0.0115851 0)
(-0.0699379 0.00829802 0)
(-0.0743628 0.00397588 0)
(-0.075384 -0.00113154 0)
(-0.0726324 -0.00656518 0)
(-0.0661009 -0.0116603 0)
(-0.0562484 -0.0156213 0)
(-0.0440474 -0.0176744 0)
(-0.0309322 -0.017283 0)
(-0.018607 -0.0143794 0)
(-0.00871154 -0.00953776 0)
(-0.00241731 -0.00405138 0)
(2.52327e-05 -2.16469e-05 0)
(-0.000620187 0.00449727 0)
(-0.0066326 0.0133639 0)
(-0.0166721 0.0204438 0)
(-0.0294035 0.0250454 0)
(-0.0434339 0.0272306 0)
(-0.057695 0.027214 0)
(-0.0712256 0.0251354 0)
(-0.0830926 0.0210434 0)
(-0.0923795 0.0149886 0)
(-0.0982225 0.00715765 0)
(-0.0998904 -0.00200427 0)
(-0.0968996 -0.0117196 0)
(-0.0891491 -0.0208803 0)
(-0.0770535 -0.0281551 0)
(-0.0616403 -0.0322165 0)
(-0.0445557 -0.0320845 0)
(-0.027907 -0.027526 0)
(-0.0139061 -0.0193805 0)
(-0.00439315 -0.00967578 0)
(-0.000133606 -0.00155882 0)
(-0.000852457 0.00844393 0)
(-0.00865259 0.0227742 0)
(-0.0212673 0.0333692 0)
(-0.036929 0.039968 0)
(-0.0539356 0.0429098 0)
(-0.0710859 0.042572 0)
(-0.0873401 0.0391696 0)
(-0.101697 0.0327796 0)
(-0.113163 0.0234846 0)
(-0.120776 0.0115553 0)
(-0.123668 -0.00238432 0)
(-0.121176 -0.017252 0)
(-0.112983 -0.0314852 0)
(-0.099301 -0.043154 0)
(-0.0810504 -0.0502364 0)
(-0.0599789 -0.0510917 0)
(-0.0386059 -0.0450792 0)
(-0.0198818 -0.033137 0)
(-0.00660103 -0.018028 0)
(-0.000278802 -0.00410939 0)
(-0.00104479 0.0133825 0)
(-0.010368 0.0342809 0)
(-0.0252044 0.0488917 0)
(-0.0434118 0.0576512 0)
(-0.0630277 0.0613445 0)
(-0.0827639 0.0606004 0)
(-0.101558 0.0557448 0)
(-0.1184 0.0468844 0)
(-0.13227 0.034109 0)
(-0.142131 0.017726 0)
(-0.146968 -0.00152765 0)
(-0.145867 -0.0223278 0)
(-0.138178 -0.0426993 0)
(-0.123738 -0.0600743 0)
(-0.103163 -0.0715743 0)
(-0.078135 -0.0745912 0)
(-0.051538 -0.0676786 0)
(-0.0272258 -0.0515431 0)
(-0.00932271 -0.0296302 0)
(-0.000452608 -0.00782158 0)
(-0.00119075 0.0191348 0)
(-0.0117127 0.047527 0)
(-0.0283218 0.0665944 0)
(-0.0485846 0.077684 0)
(-0.0703432 0.0821772 0)
(-0.0922715 0.0810454 0)
(-0.113338 0.0747653 0)
(-0.13258 0.0634724 0)
(-0.149006 0.0472247 0)
(-0.161546 0.0262912 0)
(-0.169038 0.00141602 0)
(-0.170298 -0.0259577 0)
(-0.164249 -0.053535 0)
(-0.150189 -0.0781259 0)
(-0.128191 -0.0958534 0)
(-0.0995994 -0.102777 0)
(-0.0674656 -0.0960691 0)
(-0.0366062 -0.0756179 0)
(-0.0129197 -0.0453303 0)
(-0.00070578 -0.0130223 0)
(-0.00128236 0.0254882 0)
(-0.01262 0.0620743 0)
(-0.0304569 0.0859504 0)
(-0.0521579 0.0995279 0)
(-0.0754383 0.104911 0)
(-0.0989811 0.103501 0)
(-0.121835 0.0959712 0)
(-0.143145 0.0824865 0)
(-0.162012 0.0630313 0)
(-0.177397 0.0377472 0)
(-0.18806 0.00725254 0)
(-0.19257 -0.0270598 0)
(-0.189404 -0.0627404 0)
(-0.177207 -0.0960891 0)
(-0.155259 -0.122182 0)
(-0.124181 -0.135401 0)
(-0.0867696 -0.130813 0)
(-0.0486132 -0.106529 0)
(-0.0177894 -0.066302 0)
(-0.00110072 -0.0202427 0)
(-0.00131498 0.032197 0)
(-0.0130437 0.0774091 0)
(-0.0314803 0.106318 0)
(-0.0538688 0.122488 0)
(-0.0778586 0.128847 0)
(-0.102182 0.12731 0)
(-0.126013 0.118799 0)
(-0.148664 0.103525 0)
(-0.169409 0.0813647 0)
(-0.187338 0.052252 0)
(-0.201248 0.0165397 0)
(-0.209582 -0.0246221 0)
(-0.210454 -0.0688768 0)
(-0.20184 -0.112258 0)
(-0.182035 -0.148926 0)
(-0.150492 -0.171402 0)
(-0.109082 -0.171883 0)
(-0.063572 -0.145319 0)
(-0.0243376 -0.0939709 0)
(-0.00171977 -0.0302328 0)
(-0.00129452 0.0390027 0)
(-0.0129962 0.0929701 0)
(-0.0313624 0.126958 0)
(-0.0535745 0.145705 0)
(-0.0772624 0.153044 0)
(-0.101241 0.151491 0)
(-0.124852 0.14228 0)
(-0.147636 0.1257 0)
(-0.169123 0.101522 0)
(-0.188658 0.0694169 0)
(-0.20524 0.0293578 0)
(-0.217387 -0.0179464 0)
(-0.223056 -0.0705285 0)
(-0.219697 -0.124544 0)
(-0.204571 -0.173624 0)
(-0.175586 -0.208561 0)
(-0.132867 -0.218133 0)
(-0.0812662 -0.192438 0)
(-0.0329245 -0.129831 0)
(-0.0026764 -0.0439717 0)
(-0.00124739 0.0456793 0)
(-0.0125997 0.108214 0)
(-0.0302621 0.147081 0)
(-0.0513754 0.168177 0)
(-0.0735816 0.176319 0)
(-0.0958167 0.174717 0)
(-0.117636 0.164996 0)
(-0.138864 0.147581 0)
(-0.159374 0.122164 0)
(-0.178887 0.0881519 0)
(-0.19679 0.0450789 0)
(-0.211926 -0.00694346 0)
(-0.22241 -0.0666489 0)
(-0.225481 -0.130797 0)
(-0.217568 -0.193142 0)
(-0.194885 -0.243358 0)
(-0.15506 -0.266783 0)
(-0.100554 -0.247078 0)
(-0.0437377 -0.175084 0)
(-0.00412543 -0.0626602 0)
(-0.00123424 0.0521129 0)
(-0.0121522 0.122725 0)
(-0.0286287 0.165933 0)
(-0.0477433 0.188815 0)
(-0.0671804 0.197291 0)
(-0.0860648 0.195366 0)
(-0.104232 0.185138 0)
(-0.121853 0.167238 0)
(-0.139205 0.141341 0)
(-0.156487 0.106638 0)
(-0.173621 0.0622367 0)
(-0.190029 0.00757929 0)
(-0.204331 -0.0569936 0)
(-0.214017 -0.129349 0)
(-0.215172 -0.204204 0)
(-0.202581 -0.27122 0)
(-0.170987 -0.313149 0)
(-0.118963 -0.306419 0)
(-0.056542 -0.230028 0)
(-0.00626578 -0.0876635 0)
(-0.00137197 0.0584295 0)
(-0.0122129 0.136367 0)
(-0.0273049 0.182908 0)
(-0.0436195 0.206524 0)
(-0.0589492 0.214454 0)
(-0.0727473 0.211614 0)
(-0.0852455 0.20064 0)
(-0.0970289 0.182417 0)
(-0.108825 0.156677 0)
(-0.121346 0.122476 0)
(-0.135128 0.0785808 0)
(-0.150319 0.0238094 0)
(-0.166355 -0.0424943 0)
(-0.181493 -0.119666 0)
(-0.192196 -0.204224 0)
(-0.192574 -0.287295 0)
(-0.174766 -0.350913 0)
(-0.13247 -0.365065 0)
(-0.0702847 -0.293144 0)
(-0.00932241 -0.120327 0)
(-0.00187458 0.0651923 0)
(-0.0137218 0.149483 0)
(-0.027614 0.197642 0)
(-0.0404217 0.220244 0)
(-0.0502294 0.226233 0)
(-0.0570968 0.221543 0)
(-0.0618422 0.209342 0)
(-0.0655531 0.190772 0)
(-0.0694202 0.165651 0)
(-0.0746462 0.132988 0)
(-0.0823521 0.0913357 0)
(-0.0934298 0.0390518 0)
(-0.108279 -0.0253989 0)
(-0.126333 -0.102872 0)
(-0.145238 -0.192251 0)
(-0.159618 -0.287647 0)
(-0.160134 -0.373098 0)
(-0.13564 -0.415069 0)
(-0.0826017 -0.360032 0)
(-0.0134578 -0.161507 0)
(-0.00311271 0.0736952 0)
(-0.0181471 0.16309 0)
(-0.0313414 0.210023 0)
(-0.0397745 0.228876 0)
(-0.0423135 0.230929 0)
(-0.04013 0.223147 0)
(-0.0349084 0.209089 0)
(-0.0283362 0.190037 0)
(-0.022054 0.165857 0)
(-0.0176741 0.135555 0)
(-0.016785 0.0976028 0)
(-0.0209065 0.0501206 0)
(-0.0313499 -0.00898828 0)
(-0.0488803 -0.0817927 0)
(-0.072943 -0.169562 0)
(-0.100024 -0.270454 0)
(-0.121232 -0.373555 0)
(-0.121986 -0.446842 0)
(-0.0893012 -0.422729 0)
(-0.0184621 -0.210767 0)
(-0.00560058 0.0864561 0)
(-0.0274694 0.178972 0)
(-0.0401756 0.219819 0)
(-0.0422771 0.230819 0)
(-0.0346755 0.226341 0)
(-0.0205074 0.21408 0)
(-0.00265132 0.197581 0)
(0.016546 0.177993 0)
(0.0350614 0.155094 0)
(0.0510065 0.127866 0)
(0.0625 0.0947984 0)
(0.0675981 0.0540019 0)
(0.0642929 0.00322115 0)
(0.0506425 -0.0602271 0)
(0.0252479 -0.13937 0)
(-0.0112459 -0.236503 0)
(-0.0527381 -0.348244 0)
(-0.084124 -0.450619 0)
(-0.0838766 -0.470131 0)
(-0.0231304 -0.265987 0)
(-0.00989775 0.10878 0)
(-0.0432213 0.199375 0)
(-0.0528008 0.225214 0)
(-0.0427812 0.222492 0)
(-0.01928 0.208644 0)
(0.0114852 0.190896 0)
(0.0453755 0.171923 0)
(0.0795801 0.152261 0)
(0.111942 0.131365 0)
(0.140555 0.108134 0)
(0.163499 0.0811343 0)
(0.178674 0.0486586 0)
(0.183684 0.00866351 0)
(0.175794 -0.0414741 0)
(0.152036 -0.105434 0)
(0.11003 -0.188474 0)
(0.0511088 -0.295501 0)
(-0.0133869 -0.417288 0)
(-0.057207 -0.488443 0)
(-0.024708 -0.323575 0)
(-0.0177757 0.15182 0)
(-0.0613623 0.223674 0)
(-0.052539 0.217495 0)
(-0.0149325 0.194568 0)
(0.034498 0.170554 0)
(0.0873522 0.148527 0)
(0.139689 0.128879 0)
(0.189253 0.111001 0)
(0.234468 0.0938305 0)
(0.273937 0.0761609 0)
(0.306121 0.056727 0)
(0.329137 0.0341685 0)
(0.340586 0.00693928 0)
(0.337443 -0.0269639 0)
(0.315871 -0.0706996 0)
(0.271246 -0.130182 0)
(0.199351 -0.216277 0)
(0.102414 -0.338214 0)
(0.00401212 -0.456646 0)
(-0.0160435 -0.369112 0)
(-0.0241662 0.208395 0)
(-0.0378226 0.230488 0)
(0.0373242 0.176552 0)
(0.124969 0.136737 0)
(0.205516 0.10884 0)
(0.277425 0.0879467 0)
(0.341402 0.0718586 0)
(0.397777 0.0589778 0)
(0.446633 0.0479089 0)
(0.487743 0.0375129 0)
(0.520472 0.0268171 0)
(0.543568 0.0149527 0)
(0.555117 0.00103037 0)
(0.552433 -0.0160308 0)
(0.531663 -0.0380666 0)
(0.487303 -0.0690036 0)
(0.410859 -0.119044 0)
(0.290678 -0.209353 0)
(0.13301 -0.338297 0)
(0.0386775 -0.34032 0)
(0.241919 0.109172 0)
(0.313572 0.0971738 0)
(0.444488 0.0569931 0)
(0.549768 0.0351011 0)
(0.624088 0.0237077 0)
(0.679469 0.0166673 0)
(0.723176 0.0119421 0)
(0.758341 0.00867243 0)
(0.78654 0.00625724 0)
(0.808583 0.0042576 0)
(0.824649 0.00237138 0)
(0.834356 0.000389898 0)
(0.836822 -0.0018648 0)
(0.830605 -0.00455528 0)
(0.813371 -0.0080082 0)
(0.781201 -0.012893 0)
(0.725781 -0.0212671 0)
(0.629924 -0.0381355 0)
(0.459279 -0.0856022 0)
(0.304885 -0.125706 0)
)
;

boundaryField
{
    movingWall
    {
        type            calculated;
        value           uniform (1 0 0);
    }
    fixedWalls
    {
        type            calculated;
        value           uniform (0 0 0);
    }
    frontAndBack
    {
        type            empty;
    }
}


// ************************************************************************* //
