/*--------------------------------*- C++ -*----------------------------------*\
  =========                 |
  \\      /  F ield         | OpenFOAM: The Open Source CFD Toolbox
   \\    /   O peration     | Website:  https://openfoam.org
    \\  /    A nd           | Version:  13
     \\/     M anipulation  |
\*---------------------------------------------------------------------------*/
FoamFile
{
    format      ascii;
    class       volScalarField;
    location    "36";
    object      p;
}
// * * * * * * * * * * * * * * * * * * * * * * * * * * * * * * * * * * * * * //

dimensions      [0 2 -2 0 0 0 0];

internalField   nonuniform List<scalar> 
400
(
9.20438e-10
-0.000526215
-0.00116735
-0.00166252
-0.00189235
-0.00180785
-0.0013849
-0.000612994
0.000498449
0.00190514
0.00351304
0.00517209
0.00668717
0.00784942
0.00848617
0.00851716
0.00799763
0.00713234
0.00625144
0.00570001
0.000533177
-1.12315e-05
-0.000576796
-0.000972038
-0.00114391
-0.00106583
-0.00071705
-8.29275e-05
0.000836484
0.00201183
0.00336972
0.00478565
0.00609129
0.00710257
0.00766496
0.00770524
0.00726961
0.00652883
0.00574274
0.00518163
0.0011994
0.000517559
-8.00376e-05
-0.000440976
-0.000597853
-0.000558245
-0.000307306
0.000177076
0.000910824
0.00188613
0.00305326
0.00430901
0.00549978
0.00644592
0.00698669
0.0070345
0.00661533
0.00586821
0.00499757
0.00426646
0.00167716
0.000797725
8.37075e-05
-0.000320231
-0.000523962
-0.000567808
-0.000440615
-0.000108167
0.000467587
0.00130571
0.00238159
0.00360809
0.00483189
0.00585427
0.00647835
0.0065729
0.00612579
0.00524905
0.00412814
0.0030961
0.00171269
0.000633249
-0.000223233
-0.000713869
-0.00101433
-0.00119013
-0.00122777
-0.00107481
-0.000664272
5.70259e-05
0.00109613
0.00238577
0.00376966
0.00501688
0.0058695
0.00611955
0.00568637
0.00464264
0.00317486
0.00174627
0.00109591
-0.000161981
-0.00116255
-0.00176923
-0.00221332
-0.00257749
-0.00283967
-0.00292288
-0.00272335
-0.00214322
-0.00113054
0.000281885
0.00194344
0.00358804
0.00487443
0.00547623
0.00519414
0.00402353
0.00214938
0.00022614
-0.000349986
-0.00175432
-0.00289242
-0.00364188
-0.00428062
-0.00490236
-0.00547224
-0.00588389
-0.0059887
-0.00563012
-0.00468966
-0.00314295
-0.00110648
0.00112986
0.00312643
0.00438869
0.00452194
0.00336631
0.00106631
-0.00146275
-0.00276137
-0.00427392
-0.00553906
-0.00645754
-0.00734631
-0.00830726
-0.00929221
-0.0101637
-0.0107218
-0.0107365
-0.00999713
-0.00837973
-0.00592538
-0.00291037
0.000133115
0.00249526
0.00348156
0.00264099
-2.55224e-05
-0.00327292
-0.00622249
-0.00780035
-0.00917657
-0.010284
-0.0114738
-0.0128575
-0.0143782
-0.0158701
-0.0170799
-0.0176918
-0.0173749
-0.0158601
-0.0130481
-0.00913288
-0.00469385
-0.000675883
0.00180983
0.0018161
-0.0010064
-0.0050498
-0.0107558
-0.0123518
-0.0138106
-0.0151051
-0.0166215
-0.0184892
-0.020652
-0.0229246
-0.0250039
-0.026483
-0.0268898
-0.0257656
-0.0227996
-0.0180016
-0.0118987
-0.00562638
-0.00079948
0.000879096
-0.0016356
-0.00644484
-0.0163219
-0.0178834
-0.0193698
-0.020801
-0.0226106
-0.0249629
-0.0278178
-0.0309825
-0.0341135
-0.0367169
-0.0381719
-0.0378
-0.0350228
-0.029549
-0.0217032
-0.0126725
-0.00456534
-9.17963e-05
-0.00147349
-0.00678406
-0.0228382
-0.024302
-0.0257115
-0.027142
-0.0291098
-0.0318433
-0.035337
-0.039403
-0.0436678
-0.0475605
-0.0503211
-0.0510557
-0.0488533
-0.0430664
-0.033644
-0.0215933
-0.00934712
-0.000753788
0.000251984
-0.00487204
-0.0302285
-0.0315032
-0.0326431
-0.0337996
-0.0356456
-0.038519
-0.0424655
-0.0473067
-0.0526421
-0.0578308
-0.0619855
-0.0640073
-0.0626927
-0.0569738
-0.0463074
-0.0312637
-0.0142682
-0.000195281
0.00488151
0.00128858
-0.0385245
-0.0394363
-0.0399549
-0.0403683
-0.041639
-0.044269
-0.048359
-0.0537262
-0.059928
-0.0662462
-0.0716728
-0.0749267
-0.0745391
-0.0690536
-0.0573989
-0.0395183
-0.0174194
0.00341763
0.0146764
0.0148553
-0.0480688
-0.0482069
-0.047454
-0.0463903
-0.0464606
-0.0483653
-0.0522269
-0.0578124
-0.0645961
-0.0717528
-0.0781395
-0.082299
-0.0825232
-0.07702
-0.0642387
-0.0434482
-0.0158989
0.0129967
0.033075
0.0403658
-0.0598621
-0.0582447
-0.0550087
-0.0513916
-0.0495156
-0.050208
-0.0535039
-0.0590334
-0.0661198
-0.0737804
-0.0807015
-0.0852298
-0.085417
-0.0791602
-0.0644934
-0.0400808
-0.00627322
0.0322994
0.0644845
0.0832678
-0.0761522
-0.0706195
-0.0625898
-0.0549251
-0.0503416
-0.049446
-0.0519681
-0.0572732
-0.0644511
-0.0723035
-0.0793062
-0.0835785
-0.0829039
-0.0748365
-0.0569713
-0.0273827
0.0145025
0.0654346
0.114337
0.150133
-0.104089
-0.0878709
-0.0699479
-0.0562561
-0.0483587
-0.0457423
-0.0475092
-0.0526066
-0.0598029
-0.0676487
-0.0744009
-0.0779506
-0.0758058
-0.0651178
-0.0428854
-0.00627707
0.0466616
0.11524
0.191412
0.258217
-0.175911
-0.114837
-0.0735948
-0.0518953
-0.0411878
-0.0375599
-0.039232
-0.044642
-0.0521898
-0.0602157
-0.0668409
-0.0698116
-0.0664462
-0.0535589
-0.0274172
0.0163247
0.0826261
0.177269
0.305315
0.452602
-0.355782
-0.155202
-0.0704085
-0.0427815
-0.0313535
-0.0275883
-0.0297357
-0.0358829
-0.0440974
-0.0525875
-0.0594459
-0.0624125
-0.0587565
-0.0451425
-0.0172668
0.0307512
0.108339
0.233267
0.434716
0.735789
)
;

boundaryField
{
    movingWall
    {
        type            zeroGradient;
    }
    fixedWalls
    {
        type            zeroGradient;
    }
    frontAndBack
    {
        type            empty;
    }
}


// ************************************************************************* //
