/*--------------------------------*- C++ -*----------------------------------*\
  =========                 |
  \\      /  F ield         | OpenFOAM: The Open Source CFD Toolbox
   \\    /   O peration     | Website:  https://openfoam.org
    \\  /    A nd           | Version:  13
     \\/     M anipulation  |
\*---------------------------------------------------------------------------*/
FoamFile
{
    format      ascii;
    class       volScalarField;
    location    "36";
    object      p;
}
// * * * * * * * * * * * * * * * * * * * * * * * * * * * * * * * * * * * * * //

dimensions      [0 2 -2 0 0 0 0];

internalField   nonuniform List<scalar> 
400
(
1.27521e-07
-0.000572394
-0.00121599
-0.00171886
-0.00195919
-0.00188468
-0.00147048
-0.000705525
0.000401305
0.00180597
0.0034147
0.00507502
0.00659105
0.0077511
0.0083798
0.00839564
0.00785535
0.00696891
0.00604802
0.00549435
0.000569976
-2.02928e-05
-0.000569679
-0.000957044
-0.00113202
-0.00106197
-0.000725972
-0.00010924
0.000788774
0.00193945
0.00326979
0.00466013
0.00594071
0.00692982
0.00747425
0.0075018
0.00705923
0.00631885
0.00554327
0.00497265
0.00124572
0.000492999
-8.67089e-05
-0.000441366
-0.000606154
-0.000576292
-0.000337277
0.000132592
0.000849696
0.00180689
0.00295486
0.0041918
0.00536445
0.00629383
0.00681927
0.00685292
0.00642077
0.0056682
0.00480895
0.0040372
0.00174061
0.000763712
7.36783e-05
-0.000321932
-0.000537119
-0.000592736
-0.000478233
-0.000160158
0.000400031
0.00122209
0.0022817
0.00349288
0.00470173
0.00570975
0.00631942
0.00639818
0.00593354
0.0050506
0.00394843
0.00284446
0.0017955
0.000595749
-0.000227678
-0.000704807
-0.00101813
-0.00120722
-0.00125936
-0.001123
-0.000730488
-2.78111e-05
0.000991777
0.00226363
0.0036301
0.00486129
0.00569872
0.00593237
0.00548045
0.00443553
0.00299997
0.00146213
0.00119474
-0.000202993
-0.00116326
-0.00175267
-0.00221139
-0.00259064
-0.00286924
-0.00297118
-0.0027919
-0.00223289
-0.00124402
0.000150567
0.0017929
0.00341989
0.00469028
0.00527479
0.00497196
0.00380573
0.00197906
-0.000104001
-0.000241578
-0.00180005
-0.00289221
-0.00362217
-0.00427766
-0.00491659
-0.00550503
-0.0059375
-0.00606452
-0.0057284
-0.00480687
-0.00328512
-0.00127028
0.000946753
0.00292635
0.00416992
0.00427932
0.0031356
0.000902667
-0.0018562
-0.00265189
-0.0043263
-0.0055412
-0.00643922
-0.00734706
-0.00832767
-0.00933382
-0.0102287
-0.0108112
-0.0108504
-0.0101335
-0.00853894
-0.006107
-0.00311219
-8.63627e-05
0.0022551
0.00321272
0.00239534
-0.000177309
-0.0037529
-0.00612129
-0.00786164
-0.00918467
-0.0102717
-0.0114829
-0.0128893
-0.0144343
-0.0159528
-0.0171895
-0.0178276
-0.0175353
-0.0160427
-0.013253
-0.00935744
-0.00493597
-0.000941349
0.00150814
0.00155464
-0.00113709
-0.00564674
-0.0106714
-0.0124236
-0.0138274
-0.015102
-0.0166421
-0.0185357
-0.0207271
-0.0230304
-0.0251404
-0.0266491
-0.027084
-0.0259775
-0.0230342
-0.018254
-0.0121677
-0.00592208
-0.00114223
0.00060308
-0.00173134
-0.00719509
-0.0162604
-0.0179653
-0.0193956
-0.0208061
-0.0226414
-0.0250233
-0.0279112
-0.0311114
-0.0342774
-0.0369138
-0.0383952
-0.0380066
-0.0352841
-0.0298335
-0.0220051
-0.0130064
-0.00495976
-0.000375517
-0.00151598
-0.00772063
-0.0228029
-0.0243899
-0.0257426
-0.0271483
-0.0291434
-0.0319105
-0.0354423
-0.0395493
-0.0438548
-0.0477846
-0.0505799
-0.0513771
-0.0491634
-0.0433939
-0.0339888
-0.0219776
-0.00980588
-0.00102472
0.00028009
-0.00599995
-0.0302225
-0.0315861
-0.0326695
-0.0337919
-0.035668
-0.0385798
-0.0425689
-0.0474549
-0.0528342
-0.0580626
-0.062251
-0.0643105
-0.0630222
-0.0573319
-0.0466928
-0.0317049
-0.0148011
-0.000417032
0.00496565
2.28486e-05
-0.0385599
-0.0394894
-0.0399611
-0.0403268
-0.0416349
-0.0443095
-0.0484455
-0.0538593
-0.0601058
-0.0664653
-0.0719293
-0.0752214
-0.0748703
-0.0694213
-0.057807
-0.0400021
-0.0180232
0.00327959
0.0146986
0.0135558
-0.0481747
-0.0481569
-0.0474034
-0.046284
-0.046412
-0.0483712
-0.0522814
-0.0579131
-0.0647393
-0.0719353
-0.0783606
-0.0825612
-0.0828322
-0.0773738
-0.0646452
-0.0439369
-0.0165434
0.0130189
0.0329311
0.0392808
-0.0602349
-0.0579576
-0.0548671
-0.0512134
-0.0494271
-0.0501783
-0.0535203
-0.0590936
-0.06622
-0.0739187
-0.0808794
-0.0854534
-0.0857069
-0.0795198
-0.0649419
-0.0406112
-0.00697881
0.0328169
0.0647938
0.0836769
-0.0774814
-0.0694732
-0.0620874
-0.0545494
-0.0501389
-0.049325
-0.0519044
-0.057261
-0.0644862
-0.0723849
-0.0794399
-0.0837783
-0.0832184
-0.0752829
-0.0576214
-0.0282112
0.0133525
0.0666611
0.115752
0.154807
-0.108926
-0.08504
-0.0697733
-0.0563915
-0.048541
-0.0458811
-0.0476242
-0.052715
-0.0599172
-0.067777
-0.0745523
-0.07814
-0.0761044
-0.0655425
-0.0436432
-0.00744504
0.0447432
0.114933
0.188078
0.263281
-0.168693
-0.100746
-0.0730931
-0.0522881
-0.0413102
-0.0376997
-0.039442
-0.0448654
-0.0524157
-0.0604469
-0.0670739
-0.0700478
-0.0666875
-0.0537884
-0.0278898
0.0154099
0.0800716
0.17276
0.285855
0.445985
-0.402754
-0.139031
-0.0734591
-0.0447301
-0.0305718
-0.0266175
-0.0290856
-0.0353735
-0.043654
-0.0522074
-0.059124
-0.0621455
-0.0586175
-0.045214
-0.0174508
0.0310787
0.108496
0.236657
0.427487
0.79368
)
;

boundaryField
{
    movingWall
    {
        type            zeroGradient;
    }
    fixedWalls
    {
        type            zeroGradient;
    }
    frontAndBack
    {
        type            empty;
    }
}


// ************************************************************************* //
