/*--------------------------------*- C++ -*----------------------------------*\
  =========                 |
  \\      /  F ield         | OpenFOAM: The Open Source CFD Toolbox
   \\    /   O peration     | Website:  https://openfoam.org
    \\  /    A nd           | Version:  13
     \\/     M anipulation  |
\*---------------------------------------------------------------------------*/
FoamFile
{
    format      ascii;
    class       volVectorField;
    location    "36";
    object      U;
}
// * * * * * * * * * * * * * * * * * * * * * * * * * * * * * * * * * * * * * //

dimensions      [0 1 -1 0 0 0 0];

internalField   nonuniform List<vector> 
400
(
(0.00018101 -0.000184855 0)
(-0.000140076 3.14167e-05 0)
(-0.00153163 0.000268749 0)
(-0.00377556 0.00041936 0)
(-0.00652543 0.000498894 0)
(-0.0094809 0.000529024 0)
(-0.0123928 0.000519538 0)
(-0.0150287 0.000469423 0)
(-0.0171491 0.000372008 0)
(-0.0185086 0.000221988 0)
(-0.0188828 2.26128e-05 0)
(-0.0181172 -0.000208793 0)
(-0.0161865 -0.000438432 0)
(-0.0132453 -0.000619975 0)
(-0.00964791 -0.000705007 0)
(-0.00591851 -0.000658653 0)
(-0.00266096 -0.000474606 0)
(-0.000415405 -0.000183169 0)
(0.000533466 0.000134981 0)
(0.000307628 0.000300693 0)
(-4.83061e-05 0.00013895 0)
(-0.00207104 0.00192624 0)
(-0.00640595 0.0037453 0)
(-0.012528 0.00500286 0)
(-0.0196827 0.00566449 0)
(-0.0272017 0.00580633 0)
(-0.0344826 0.00547905 0)
(-0.0409458 0.00468931 0)
(-0.0460147 0.00342757 0)
(-0.0491336 0.00171319 0)
(-0.0498317 -0.000361776 0)
(-0.0478197 -0.00260418 0)
(-0.0430979 -0.00471868 0)
(-0.0360422 -0.00634406 0)
(-0.0274331 -0.00712895 0)
(-0.0183916 -0.0068365 0)
(-0.0102025 -0.00545048 0)
(-0.00403213 -0.00325055 0)
(-0.000581843 -0.000865099 0)
(0.000219211 0.000582549 0)
(-0.000352696 0.00171217 0)
(-0.00446379 0.0064382 0)
(-0.0118114 0.010626 0)
(-0.0214932 0.0134577 0)
(-0.0324182 0.0148844 0)
(-0.0436782 0.0150334 0)
(-0.0544382 0.013994 0)
(-0.0638859 0.011789 0)
(-0.0712229 0.00843196 0)
(-0.0757005 0.00401686 0)
(-0.0767016 -0.0011976 0)
(-0.0738551 -0.0067381 0)
(-0.0671615 -0.0119224 0)
(-0.0570968 -0.0159375 0)
(-0.0446599 -0.0179967 0)
(-0.0313161 -0.0175605 0)
(-0.0188003 -0.0145714 0)
(-0.0087744 -0.00962713 0)
(-0.00241826 -0.00405464 0)
(3.31598e-05 1.51034e-05 0)
(-0.00062848 0.00457426 0)
(-0.00677359 0.0136094 0)
(-0.0170113 0.0208223 0)
(-0.0299937 0.0255085 0)
(-0.0442912 0.0277326 0)
(-0.0588156 0.0277126 0)
(-0.0725865 0.0255879 0)
(-0.0846509 0.0214052 0)
(-0.0940738 0.0152162 0)
(-0.0999761 0.0072155 0)
(-0.101618 -0.0021359 0)
(-0.098514 -0.0120369 0)
(-0.0905718 -0.0213522 0)
(-0.078223 -0.0287236 0)
(-0.0625212 -0.0328035 0)
(-0.0451458 -0.0326057 0)
(-0.0282401 -0.0279106 0)
(-0.0140458 -0.019593 0)
(-0.00442371 -0.00973325 0)
(-0.000126905 -0.00152476 0)
(-0.000866075 0.00860963 0)
(-0.00884069 0.0232143 0)
(-0.0217036 0.0340068 0)
(-0.0376694 0.0407207 0)
(-0.0549907 0.0437059 0)
(-0.0724441 0.043347 0)
(-0.08897 0.0398601 0)
(-0.103547 0.0333218 0)
(-0.115164 0.0238185 0)
(-0.122846 0.0116337 0)
(-0.125717 -0.00258603 0)
(-0.123112 -0.0177261 0)
(-0.114721 -0.0321892 0)
(-0.100768 -0.0440094 0)
(-0.0821955 -0.0511361 0)
(-0.0607841 -0.0519157 0)
(-0.0390914 -0.04572 0)
(-0.0201078 -0.0335302 0)
(-0.00666515 -0.0181806 0)
(-0.000273017 -0.00409424 0)
(-0.00106204 0.0136594 0)
(-0.010586 0.0349546 0)
(-0.0257008 0.0498319 0)
(-0.0442425 0.0587339 0)
(-0.0641981 0.0624687 0)
(-0.0842563 0.0616787 0)
(-0.103336 0.0566937 0)
(-0.120408 0.0476223 0)
(-0.13444 0.0345618 0)
(-0.144384 0.0178369 0)
(-0.149214 -0.00178688 0)
(-0.14802 -0.0229502 0)
(-0.14015 -0.0436344 0)
(-0.125449 -0.061229 0)
(-0.104545 -0.0728172 0)
(-0.0791483 -0.0757673 0)
(-0.0521807 -0.0686373 0)
(-0.0275449 -0.0521782 0)
(-0.0094241 -0.029923 0)
(-0.00044794 -0.0078432 0)
(-0.00120903 0.0195341 0)
(-0.0119367 0.0484523 0)
(-0.0288284 0.0678557 0)
(-0.049427 0.0791117 0)
(-0.0715227 0.0836401 0)
(-0.0937674 0.0824335 0)
(-0.115112 0.0759772 0)
(-0.13458 0.0644118 0)
(-0.151169 0.0478065 0)
(-0.1638 0.0264513 0)
(-0.17131 0.00112186 0)
(-0.17251 -0.0267005 0)
(-0.16632 -0.0546747 0)
(-0.152037 -0.0795634 0)
(-0.129739 -0.0974424 0)
(-0.100784 -0.104333 0)
(-0.0682546 -0.097396 0)
(-0.0370202 -0.0765538 0)
(-0.0130619 -0.045811 0)
(-0.000703007 -0.0131006 0)
(-0.00129854 0.0260062 0)
(-0.0128223 0.0632429 0)
(-0.030916 0.0875207 0)
(-0.0529219 0.101286 0)
(-0.0765065 0.106695 0)
(-0.100332 0.105181 0)
(-0.123433 0.0974295 0)
(-0.144943 0.083617 0)
(-0.163957 0.0637419 0)
(-0.179433 0.0379697 0)
(-0.190131 0.00695109 0)
(-0.194618 -0.0278806 0)
(-0.191368 -0.0640332 0)
(-0.179017 -0.0977585 0)
(-0.156839 -0.12408 0)
(-0.125452 -0.137327 0)
(-0.0876642 -0.132531 0)
(-0.0491121 -0.107812 0)
(-0.0179742 -0.0670165 0)
(-0.0011013 -0.0203998 0)
(-0.00132586 0.032814 0)
(-0.013196 0.0787839 0)
(-0.0318334 0.108153 0)
(-0.054463 0.124528 0)
(-0.0786928 0.130903 0)
(-0.103236 0.129234 0)
(-0.127255 0.120462 0)
(-0.150055 0.104813 0)
(-0.170908 0.0821847 0)
(-0.188907 0.0525366 0)
(-0.202855 0.0162547 0)
(-0.211196 -0.0254739 0)
(-0.212045 -0.070253 0)
(-0.203368 -0.114075 0)
(-0.183442 -0.151049 0)
(-0.1517 -0.173634 0)
(-0.109998 -0.173967 0)
(-0.0641246 -0.146966 0)
(-0.0245613 -0.0949552 0)
(-0.00172579 -0.0304916 0)
(-0.0012975 0.0396839 0)
(-0.0130738 0.0944871 0)
(-0.0315578 0.12898 0)
(-0.0539173 0.147946 0)
(-0.0777522 0.155293 0)
(-0.101862 0.153582 0)
(-0.125576 0.144076 0)
(-0.148433 0.127086 0)
(-0.169965 0.102407 0)
(-0.189526 0.0697402 0)
(-0.206126 0.0290933 0)
(-0.218293 -0.0187914 0)
(-0.223991 -0.071913 0)
(-0.220665 -0.1264 0)
(-0.205555 -0.175841 0)
(-0.176529 -0.210974 0)
(-0.13367 -0.220493 0)
(-0.08181 -0.194415 0)
(-0.0331731 -0.131097 0)
(-0.00269025 -0.0443527 0)
(-0.00124106 0.0463777 0)
(-0.0125858 0.109787 0)
(-0.0302628 0.149186 0)
(-0.051407 0.170513 0)
(-0.073646 0.178656 0)
(-0.0959032 0.176875 0)
(-0.117725 0.166833 0)
(-0.138935 0.148982 0)
(-0.159412 0.123046 0)
(-0.178892 0.088468 0)
(-0.196775 0.0448188 0)
(-0.211922 -0.00775768 0)
(-0.222466 -0.0679771 0)
(-0.225651 -0.132579 0)
(-0.217885 -0.1953 0)
(-0.195341 -0.245773 0)
(-0.155578 -0.269256 0)
(-0.100992 -0.24928 0)
(-0.0439817 -0.176602 0)
(-0.00414925 -0.0631747 0)
(-0.00121869 0.0527753 0)
(-0.0120407 0.124252 0)
(-0.0284187 0.168001 0)
(-0.0474364 0.191122 0)
(-0.0667823 0.199596 0)
(-0.0855737 0.197479 0)
(-0.103641 0.186914 0)
(-0.121154 0.168564 0)
(-0.138399 0.142145 0)
(-0.155588 0.10689 0)
(-0.172662 0.0619459 0)
(-0.189066 0.00678843 0)
(-0.203441 -0.0582294 0)
(-0.213283 -0.130969 0)
(-0.21468 -0.206156 0)
(-0.202382 -0.273443 0)
(-0.171057 -0.315519 0)
(-0.11918 -0.308669 0)
(-0.0567347 -0.231709 0)
(-0.0063007 -0.0883051 0)
(-0.0013488 0.0590025 0)
(-0.01201 0.137747 0)
(-0.0268936 0.184814 0)
(-0.042986 0.208673 0)
(-0.0581046 0.216605 0)
(-0.0717029 0.213574 0)
(-0.0840117 0.20226 0)
(-0.0956192 0.183592 0)
(-0.10726 0.157343 0)
(-0.119658 0.122619 0)
(-0.133363 0.0782287 0)
(-0.14854 0.0230255 0)
(-0.164646 -0.0436281 0)
(-0.179951 -0.121079 0)
(-0.190932 -0.205874 0)
(-0.191689 -0.289167 0)
(-0.174303 -0.35297 0)
(-0.132369 -0.367145 0)
(-0.0703685 -0.294841 0)
(-0.00936681 -0.121064 0)
(-0.00184662 0.0656298 0)
(-0.0134466 0.150622 0)
(-0.0270379 0.199271 0)
(-0.0395157 0.222118 0)
(-0.0490103 0.228124 0)
(-0.0555927 0.223261 0)
(-0.0600873 0.210742 0)
(-0.0635878 0.191754 0)
(-0.067291 0.16616 0)
(-0.0724046 0.133017 0)
(-0.0800539 0.0909262 0)
(-0.091137 0.0382813 0)
(-0.106062 -0.0264313 0)
(-0.124274 -0.104077 0)
(-0.14344 -0.193576 0)
(-0.1582 -0.289095 0)
(-0.159193 -0.3747 0)
(-0.135197 -0.416781 0)
(-0.0825275 -0.361564 0)
(-0.0135026 -0.16228 0)
(-0.00308424 0.073965 0)
(-0.017833 0.163918 0)
(-0.0306668 0.211285 0)
(-0.0386956 0.230382 0)
(-0.0408503 0.232479 0)
(-0.0383269 0.224566 0)
(-0.0328245 0.21024 0)
(-0.0260404 0.190826 0)
(-0.0196191 0.166232 0)
(-0.0151718 0.135511 0)
(-0.0142808 0.0971792 0)
(-0.0184578 0.0493959 0)
(-0.029007 -0.00991 0)
(-0.0466937 -0.0828071 0)
(-0.0709781 -0.170596 0)
(-0.0983758 -0.271499 0)
(-0.120014 -0.374664 0)
(-0.12128 -0.448061 0)
(-0.0890573 -0.423921 0)
(-0.0184867 -0.211486 0)
(-0.00557847 0.0865493 0)
(-0.0271681 0.179458 0)
(-0.0395045 0.220665 0)
(-0.0411779 0.231903 0)
(-0.0331641 0.227505 0)
(-0.0186356 0.215175 0)
(-0.000494619 0.198485 0)
(0.0188991 0.178618 0)
(0.0375189 0.155387 0)
(0.0534815 0.127815 0)
(0.0649185 0.0944297 0)
(0.0699039 0.0533816 0)
(0.066448 0.00244331 0)
(0.052624 -0.061058 0)
(0.0270333 -0.140165 0)
(-0.00970154 -0.237224 0)
(-0.0515132 -0.348921 0)
(-0.0833176 -0.451338 0)
(-0.0835152 -0.470893 0)
(-0.0231166 -0.266553 0)
(-0.00989365 0.108727 0)
(-0.0430048 0.199552 0)
(-0.0522727 0.225663 0)
(-0.0418693 0.223163 0)
(-0.0179815 0.209427 0)
(0.0131308 0.191676 0)
(0.0472973 0.172597 0)
(0.0816896 0.152749 0)
(0.114144 0.131616 0)
(0.142756 0.108124 0)
(0.165619 0.0808744 0)
(0.180653 0.0481951 0)
(0.18548 0.00807116 0)
(0.17739 -0.0421048 0)
(0.153433 -0.106016 0)
(0.111232 -0.188951 0)
(0.052101 -0.295872 0)
(-0.012674 -0.417632 0)
(-0.0568349 -0.488833 0)
(-0.0246648 -0.32393 0)
(-0.0178029 0.151704 0)
(-0.0612997 0.223646 0)
(-0.0522911 0.217646 0)
(-0.0144136 0.194895 0)
(0.0353248 0.171 0)
(0.088484 0.149012 0)
(0.141086 0.129325 0)
(0.190848 0.111345 0)
(0.236178 0.0940271 0)
(0.275675 0.0761851 0)
(0.307804 0.0565786 0)
(0.330695 0.0338764 0)
(0.341964 0.00655558 0)
(0.338611 -0.0273712 0)
(0.316822 -0.0710636 0)
(0.272006 -0.130454 0)
(0.199961 -0.216442 0)
(0.102868 -0.338323 0)
(0.00428664 -0.456753 0)
(-0.0159774 -0.369276 0)
(-0.0242101 0.208296 0)
(-0.0378932 0.230388 0)
(0.0372905 0.176543 0)
(0.125054 0.136841 0)
(0.205794 0.10903 0)
(0.277934 0.0881784 0)
(0.342145 0.0720848 0)
(0.398723 0.0591588 0)
(0.44772 0.0480161 0)
(0.488905 0.0375233 0)
(0.521613 0.0267326 0)
(0.544606 0.0147922 0)
(0.555995 0.000825776 0)
(0.55312 -0.0162401 0)
(0.532161 -0.0382434 0)
(0.487643 -0.0691212 0)
(0.411078 -0.11909 0)
(0.29084 -0.209353 0)
(0.133103 -0.338291 0)
(0.0387564 -0.340355 0)
(0.241894 0.109142 0)
(0.313482 0.0971299 0)
(0.444359 0.0569729 0)
(0.549663 0.0351053 0)
(0.624075 0.0237299 0)
(0.67959 0.0166979 0)
(0.723436 0.0119697 0)
(0.758718 0.00868801 0)
(0.786991 0.0062549 0)
(0.809053 0.00423707 0)
(0.825085 0.00233862 0)
(0.834713 0.000352008 0)
(0.83707 -0.00189955 0)
(0.830733 -0.00458312 0)
(0.813393 -0.0080245 0)
(0.781152 -0.0128873 0)
(0.725712 -0.021238 0)
(0.629876 -0.0381013 0)
(0.45927 -0.0855584 0)
(0.304892 -0.125699 0)
)
;

boundaryField
{
    movingWall
    {
        type            fixedValue;
        value           uniform (1 0 0);
    }
    fixedWalls
    {
        type            fixedValue;
        value           uniform (0 0 0);
    }
    frontAndBack
    {
        type            empty;
    }
}


// ************************************************************************* //
