/*--------------------------------*- C++ -*----------------------------------*\
  =========                 |
  \\      /  F ield         | OpenFOAM: The Open Source CFD Toolbox
   \\    /   O peration     | Website:  https://openfoam.org
    \\  /    A nd           | Version:  13
     \\/     M anipulation  |
\*---------------------------------------------------------------------------*/
FoamFile
{
    format      ascii;
    class       volVectorField;
    location    "36";
    object      U_0;
}
// * * * * * * * * * * * * * * * * * * * * * * * * * * * * * * * * * * * * * //

dimensions      [0 1 -1 0 0 0 0];

internalField   nonuniform List<vector> 
400
(
(0.000180503 -0.000184332 0)
(-0.000140724 3.18089e-05 0)
(-0.00153102 0.000268864 0)
(-0.00377252 0.000419337 0)
(-0.00651925 0.000498774 0)
(-0.00947119 0.000528807 0)
(-0.0123795 0.000519229 0)
(-0.0150119 0.000469049 0)
(-0.0171296 0.000371629 0)
(-0.0184874 0.000221692 0)
(-0.0188614 2.24947e-05 0)
(-0.0180974 -0.000208668 0)
(-0.01617 -0.000438062 0)
(-0.0132332 -0.00061944 0)
(-0.00964077 -0.000704461 0)
(-0.0059159 -0.000658278 0)
(-0.00266159 -0.000474541 0)
(-0.000417452 -0.000183459 0)
(0.000531673 0.000134404 0)
(0.000307067 0.000300146 0)
(-4.86179e-05 0.000139578 0)
(-0.00206885 0.00192455 0)
(-0.00639858 0.0037413 0)
(-0.0125129 0.00499716 0)
(-0.0196587 0.0056578 0)
(-0.0271682 0.00579924 0)
(-0.0344399 0.0054722 0)
(-0.0408952 0.0046834 0)
(-0.0459581 0.00342342 0)
(-0.049074 0.00171158 0)
(-0.0497727 -0.000360306 0)
(-0.0477652 -0.00259952 0)
(-0.0430513 -0.00471131 0)
(-0.0360061 -0.00633507 0)
(-0.0274086 -0.00711988 0)
(-0.0183779 -0.00682897 0)
(-0.0101972 -0.00544576 0)
(-0.00403197 -0.00324907 0)
(-0.00058329 -0.000866145 0)
(0.00021855 0.000580718 0)
(-0.000352549 0.00171093 0)
(-0.00445777 0.00643087 0)
(-0.0117958 0.0106133 0)
(-0.0214646 0.0134413 0)
(-0.0323753 0.0148661 0)
(-0.0436207 0.0150147 0)
(-0.0543672 0.0139766 0)
(-0.0638035 0.0117748 0)
(-0.0711324 0.00842264 0)
(-0.0756065 0.00401411 0)
(-0.0766091 -0.00119282 0)
(-0.0737694 -0.00672583 0)
(-0.0670872 -0.0119039 0)
(-0.0570375 -0.0159153 0)
(-0.0446171 -0.0179741 0)
(-0.0312893 -0.0175411 0)
(-0.0187869 -0.014558 0)
(-0.00877004 -0.00962091 0)
(-0.0024182 -0.00405443 0)
(3.26059e-05 1.25301e-05 0)
(-0.000627895 0.00456883 0)
(-0.00676359 0.0135921 0)
(-0.0169872 0.0207955 0)
(-0.0299519 0.0254758 0)
(-0.0442306 0.0276972 0)
(-0.0587364 0.0276775 0)
(-0.0724905 0.0255561 0)
(-0.0845411 0.0213799 0)
(-0.0939545 0.0152005 0)
(-0.0998528 0.00721172 0)
(-0.101496 -0.00212637 0)
(-0.0984009 -0.0120144 0)
(-0.0904722 -0.0213189 0)
(-0.0781412 -0.0286837 0)
(-0.0624597 -0.0327624 0)
(-0.0451047 -0.0325692 0)
(-0.0282169 -0.0278838 0)
(-0.0140361 -0.0195782 0)
(-0.00442158 -0.00972926 0)
(-0.000127371 -0.00152715 0)
(-0.000865108 0.00859789 0)
(-0.00882734 0.0231832 0)
(-0.0216727 0.0339617 0)
(-0.0376169 0.0406676 0)
(-0.054916 0.0436498 0)
(-0.0723481 0.0432925 0)
(-0.0888549 0.0398117 0)
(-0.103416 0.033284 0)
(-0.115023 0.0237954 0)
(-0.122701 0.0116287 0)
(-0.125573 -0.00257139 0)
(-0.122976 -0.0176924 0)
(-0.114599 -0.0321395 0)
(-0.100665 -0.0439493 0)
(-0.0821156 -0.0510731 0)
(-0.0607279 -0.0518581 0)
(-0.0390576 -0.0456753 0)
(-0.020092 -0.0335028 0)
(-0.00666068 -0.01817 0)
(-0.000273414 -0.00409531 0)
(-0.00106081 0.0136398 0)
(-0.0105705 0.0349069 0)
(-0.0256656 0.0497653 0)
(-0.0441836 0.0586574 0)
(-0.0641152 0.0623894 0)
(-0.0841508 0.0616029 0)
(-0.10321 0.0566272 0)
(-0.120267 0.047571 0)
(-0.134288 0.0345307 0)
(-0.144226 0.0178299 0)
(-0.149057 -0.0017679 0)
(-0.147869 -0.0229059 0)
(-0.140012 -0.0435685 0)
(-0.125329 -0.0611479 0)
(-0.104449 -0.0727302 0)
(-0.0790777 -0.0756852 0)
(-0.052136 -0.0685705 0)
(-0.0275226 -0.052134 0)
(-0.00941703 -0.0299026 0)
(-0.000448252 -0.00784169 0)
(-0.00120772 0.0195057 0)
(-0.0119208 0.0483867 0)
(-0.0287924 0.0677663 0)
(-0.0493672 0.0790108 0)
(-0.0714392 0.083537 0)
(-0.0936617 0.0823359 0)
(-0.114987 0.0758924 0)
(-0.134439 0.0643465 0)
(-0.151017 0.0477666 0)
(-0.163642 0.0264411 0)
(-0.171151 0.00114357 0)
(-0.172355 -0.0266476 0)
(-0.166176 -0.0545943 0)
(-0.151909 -0.0794625 0)
(-0.129631 -0.0973313 0)
(-0.100702 -0.104224 0)
(-0.0681997 -0.0973035 0)
(-0.0369914 -0.0764886 0)
(-0.013052 -0.0457775 0)
(-0.000703181 -0.0130952 0)
(-0.00129738 0.0259694 0)
(-0.0128079 0.06316 0)
(-0.0308835 0.0874095 0)
(-0.0528678 0.101161 0)
(-0.0764309 0.106569 0)
(-0.100237 0.105063 0)
(-0.12332 0.0973276 0)
(-0.144816 0.0835385 0)
(-0.163821 0.0636933 0)
(-0.179291 0.0379555 0)
(-0.189986 0.00697358 0)
(-0.194475 -0.027822 0)
(-0.191232 -0.0639419 0)
(-0.178892 -0.0976414 0)
(-0.156729 -0.123947 0)
(-0.125364 -0.137193 0)
(-0.0876022 -0.132411 0)
(-0.0490775 -0.107722 0)
(-0.0179613 -0.0669668 0)
(-0.00110123 -0.0203888 0)
(-0.00132508 0.0327702 0)
(-0.0131852 0.0786864 0)
(-0.0318084 0.108023 0)
(-0.0544209 0.124384 0)
(-0.0786337 0.130758 0)
(-0.103162 0.129099 0)
(-0.127168 0.120346 0)
(-0.149957 0.104724 0)
(-0.170803 0.0821288 0)
(-0.188798 0.0525185 0)
(-0.202743 0.0162764 0)
(-0.211084 -0.0254127 0)
(-0.211935 -0.0701556 0)
(-0.203263 -0.113947 0)
(-0.183345 -0.150901 0)
(-0.151617 -0.173479 0)
(-0.109935 -0.173822 0)
(-0.0640863 -0.146851 0)
(-0.0245458 -0.0948868 0)
(-0.00172534 -0.0304736 0)
(-0.00129729 0.0396354 0)
(-0.0130683 0.0943794 0)
(-0.0315439 0.128837 0)
(-0.0538929 0.147788 0)
(-0.0777175 0.155135 0)
(-0.101818 0.153435 0)
(-0.125525 0.143951 0)
(-0.148377 0.126991 0)
(-0.169906 0.102347 0)
(-0.189466 0.0697198 0)
(-0.206065 0.0291141 0)
(-0.218231 -0.0187304 0)
(-0.223927 -0.0718148 0)
(-0.220599 -0.126269 0)
(-0.205488 -0.175686 0)
(-0.176464 -0.210806 0)
(-0.133615 -0.220329 0)
(-0.0817725 -0.194277 0)
(-0.0331559 -0.131009 0)
(-0.00268924 -0.0443261 0)
(-0.00124151 0.0463281 0)
(-0.0125868 0.109675 0)
(-0.0302627 0.149037 0)
(-0.0514047 0.170347 0)
(-0.0736413 0.178492 0)
(-0.0958969 0.176724 0)
(-0.117719 0.166705 0)
(-0.13893 0.148885 0)
(-0.15941 0.122987 0)
(-0.178892 0.0884486 0)
(-0.196777 0.0448398 0)
(-0.211923 -0.00769813 0)
(-0.222464 -0.0678825 0)
(-0.225641 -0.132454 0)
(-0.217864 -0.195149 0)
(-0.195311 -0.245606 0)
(-0.155543 -0.269084 0)
(-0.100962 -0.249127 0)
(-0.0439649 -0.176497 0)
(-0.00414753 -0.063139 0)
(-0.0012198 0.0527282 0)
(-0.0120486 0.124144 0)
(-0.0284335 0.167855 0)
(-0.0474579 0.190958 0)
(-0.0668102 0.199433 0)
(-0.085608 0.197331 0)
(-0.103682 0.18679 0)
(-0.121202 0.168473 0)
(-0.138456 0.142091 0)
(-0.155651 0.106875 0)
(-0.172729 0.0619693 0)
(-0.189134 0.00684665 0)
(-0.203504 -0.0581409 0)
(-0.213336 -0.130855 0)
(-0.214716 -0.20602 0)
(-0.202397 -0.273288 0)
(-0.171053 -0.315355 0)
(-0.119165 -0.308514 0)
(-0.0567216 -0.231593 0)
(-0.00629821 -0.0882606 0)
(-0.00135045 0.0589618 0)
(-0.0120243 0.137649 0)
(-0.0269226 0.184678 0)
(-0.0430307 0.208521 0)
(-0.058164 0.216454 0)
(-0.0717762 0.213437 0)
(-0.084098 0.202147 0)
(-0.0957177 0.183511 0)
(-0.107369 0.157299 0)
(-0.119775 0.122612 0)
(-0.133485 0.0782564 0)
(-0.148664 0.0230831 0)
(-0.164765 -0.0435467 0)
(-0.180059 -0.120979 0)
(-0.191021 -0.205759 0)
(-0.191751 -0.289038 0)
(-0.174336 -0.352828 0)
(-0.132377 -0.367002 0)
(-0.070363 -0.294724 0)
(-0.00936369 -0.121013 0)
(-0.00184862 0.0655987 0)
(-0.013466 0.150541 0)
(-0.0270786 0.199155 0)
(-0.0395797 0.221985 0)
(-0.0490962 0.22799 0)
(-0.0556984 0.22314 0)
(-0.0602103 0.210645 0)
(-0.0637252 0.191687 0)
(-0.0674394 0.166126 0)
(-0.0725604 0.133018 0)
(-0.0802133 0.0909576 0)
(-0.0912958 0.0383379 0)
(-0.106215 -0.0263569 0)
(-0.124417 -0.103991 0)
(-0.143565 -0.193482 0)
(-0.158299 -0.288995 0)
(-0.159259 -0.37459 0)
(-0.135228 -0.416664 0)
(-0.0825329 -0.361459 0)
(-0.0134995 -0.162227 0)
(-0.00308629 0.0739457 0)
(-0.0178553 0.163859 0)
(-0.0307145 0.211195 0)
(-0.038772 0.230275 0)
(-0.0409537 0.232369 0)
(-0.038454 0.224466 0)
(-0.0329709 0.21016 0)
(-0.0262012 0.190771 0)
(-0.0197891 0.166208 0)
(-0.0153459 0.135516 0)
(-0.0144545 0.0972112 0)
(-0.0186271 0.049449 0)
(-0.0291687 -0.00984345 0)
(-0.0468445 -0.0827346 0)
(-0.0711136 -0.170523 0)
(-0.0984896 -0.271426 0)
(-0.120098 -0.374588 0)
(-0.121329 -0.447978 0)
(-0.0890743 -0.423839 0)
(-0.018485 -0.211437 0)
(-0.00558009 0.0865426 0)
(-0.0271895 0.179424 0)
(-0.0395521 0.220605 0)
(-0.041256 0.231826 0)
(-0.0332713 0.227422 0)
(-0.0187681 0.215098 0)
(-0.000646817 0.198422 0)
(0.0187336 0.178574 0)
(0.0373467 0.155367 0)
(0.0533088 0.12782 0)
(0.0647504 0.0944573 0)
(0.0697441 0.053427 0)
(0.0662992 0.00249959 0)
(0.0524875 -0.0609984 0)
(0.0269105 -0.140109 0)
(-0.00980773 -0.237173 0)
(-0.0515974 -0.348875 0)
(-0.0833731 -0.451289 0)
(-0.08354 -0.470841 0)
(-0.0231176 -0.266514 0)
(-0.009894 0.108731 0)
(-0.0430203 0.19954 0)
(-0.0523104 0.225631 0)
(-0.0419344 0.223115 0)
(-0.018074 0.209371 0)
(0.0130137 0.19162 0)
(0.047161 0.172549 0)
(0.0815404 0.152715 0)
(0.113989 0.131598 0)
(0.142601 0.108125 0)
(0.165471 0.0808939 0)
(0.180515 0.0482291 0)
(0.185355 0.00811415 0)
(0.17728 -0.0420594 0)
(0.153337 -0.105974 0)
(0.111149 -0.188918 0)
(0.0520331 -0.295847 0)
(-0.0127229 -0.417609 0)
(-0.0568604 -0.488807 0)
(-0.0246678 -0.323906 0)
(-0.017801 0.151713 0)
(-0.0613042 0.223648 0)
(-0.0523089 0.217635 0)
(-0.0144509 0.194871 0)
(0.0352654 0.170968 0)
(0.088403 0.148977 0)
(0.140986 0.129294 0)
(0.190735 0.111321 0)
(0.236057 0.0940134 0)
(0.275552 0.0761839 0)
(0.307685 0.0565898 0)
(0.330585 0.0338979 0)
(0.341868 0.00658347 0)
(0.33853 -0.0273419 0)
(0.316757 -0.0710377 0)
(0.271954 -0.130435 0)
(0.199919 -0.216431 0)
(0.102837 -0.338316 0)
(0.00426783 -0.456746 0)
(-0.0159815 -0.369265 0)
(-0.0242069 0.208303 0)
(-0.0378882 0.230395 0)
(0.0372928 0.176543 0)
(0.125048 0.136833 0)
(0.205774 0.109017 0)
(0.277897 0.0881617 0)
(0.342092 0.0720686 0)
(0.398655 0.0591459 0)
(0.447642 0.0480085 0)
(0.488822 0.0375229 0)
(0.521532 0.0267389 0)
(0.544533 0.0148039 0)
(0.555933 0.000840551 0)
(0.553072 -0.0162252 0)
(0.532126 -0.0382309 0)
(0.48762 -0.0691131 0)
(0.411063 -0.119087 0)
(0.290829 -0.209353 0)
(0.133097 -0.338291 0)
(0.0387516 -0.340353 0)
(0.241895 0.109144 0)
(0.313488 0.097133 0)
(0.444368 0.0569743 0)
(0.549671 0.0351048 0)
(0.624076 0.0237281 0)
(0.679581 0.0166957 0)
(0.723417 0.0119678 0)
(0.758691 0.00868702 0)
(0.786958 0.00625524 0)
(0.80902 0.00423864 0)
(0.825054 0.00234094 0)
(0.834687 0.000354631 0)
(0.837053 -0.00189719 0)
(0.830724 -0.00458127 0)
(0.813391 -0.00802349 0)
(0.781155 -0.0128879 0)
(0.725717 -0.0212401 0)
(0.629879 -0.0381035 0)
(0.459271 -0.0855608 0)
(0.304892 -0.125699 0)
)
;

boundaryField
{
    movingWall
    {
        type            calculated;
        value           uniform (1 0 0);
    }
    fixedWalls
    {
        type            calculated;
        value           uniform (0 0 0);
    }
    frontAndBack
    {
        type            empty;
    }
}


// ************************************************************************* //
