/*--------------------------------*- C++ -*----------------------------------*\
  =========                 |
  \\      /  F ield         | OpenFOAM: The Open Source CFD Toolbox
   \\    /   O peration     | Website:  https://openfoam.org
    \\  /    A nd           | Version:  13
     \\/     M anipulation  |
\*---------------------------------------------------------------------------*/
FoamFile
{
    format      ascii;
    class       volVectorField;
    location    "7";
    object      U;
}
// * * * * * * * * * * * * * * * * * * * * * * * * * * * * * * * * * * * * * //

dimensions      [0 1 -1 0 0 0 0];

internalField   nonuniform List<vector> 
400
(
(8.14532e-05 -8.37381e-05 0)
(-0.000277265 8.70644e-05 0)
(-0.00137546 0.000251876 0)
(-0.00302279 0.000358045 0)
(-0.0049565 0.000412237 0)
(-0.00695506 0.000424579 0)
(-0.00884844 0.00040257 0)
(-0.0105005 0.000349567 0)
(-0.0117932 0.000266421 0)
(-0.0126196 0.000154174 0)
(-0.0128865 1.69001e-05 0)
(-0.0125267 -0.000136001 0)
(-0.0115177 -0.00028869 0)
(-0.00990307 -0.000419068 0)
(-0.00781147 -0.00050151 0)
(-0.00546517 -0.000512037 0)
(-0.00317129 -0.000435514 0)
(-0.00128753 -0.000273815 0)
(-0.000141271 -5.45489e-05 0)
(0.000126631 0.000124564 0)
(-9.0718e-05 0.000272359 0)
(-0.0016081 0.00155939 0)
(-0.0046796 0.00277695 0)
(-0.00887721 0.00354518 0)
(-0.0136542 0.00387008 0)
(-0.0185372 0.00382741 0)
(-0.0231325 0.0034889 0)
(-0.0271114 0.00290119 0)
(-0.0301873 0.00209185 0)
(-0.0321073 0.00108534 0)
(-0.0326606 -7.89829e-05 0)
(-0.031706 -0.00133137 0)
(-0.0292111 -0.00256234 0)
(-0.025298 -0.00362262 0)
(-0.0202781 -0.00433678 0)
(-0.0146643 -0.00453276 0)
(-0.00913915 -0.00408806 0)
(-0.0044623 -0.00299237 0)
(-0.00131515 -0.00143003 0)
(-1.27882e-05 -0.000106166 0)
(-0.000280343 0.00143285 0)
(-0.00307953 0.00470555 0)
(-0.00799771 0.00745529 0)
(-0.0143531 0.00916948 0)
(-0.0213934 0.00986478 0)
(-0.0284904 0.00968409 0)
(-0.0351125 0.00877258 0)
(-0.0408092 0.00723631 0)
(-0.0451874 0.00514971 0)
(-0.047904 0.00258614 0)
(-0.0486776 -0.000344849 0)
(-0.0473217 -0.00346457 0)
(-0.0437943 -0.00650551 0)
(-0.0382538 -0.00911327 0)
(-0.0311075 -0.01088 0)
(-0.0230301 -0.0114157 0)
(-0.0149304 -0.010457 0)
(-0.00783634 -0.0080026 0)
(-0.00272193 -0.00445577 0)
(-0.000178448 -0.00108206 0)
(-0.000441963 0.00333869 0)
(-0.00437942 0.00941674 0)
(-0.0109796 0.0140758 0)
(-0.0192452 0.016878 0)
(-0.0282318 0.017928 0)
(-0.0371942 0.017472 0)
(-0.0455139 0.0157491 0)
(-0.052667 0.012938 0)
(-0.0581924 0.00917078 0)
(-0.061681 0.00457979 0)
(-0.0627878 -0.000642654 0)
(-0.061268 -0.00619036 0)
(-0.0570349 -0.011609 0)
(-0.0502316 -0.0162958 0)
(-0.0412998 -0.0195515 0)
(-0.0310221 -0.0206975 0)
(-0.0205047 -0.01926 0)
(-0.01106 -0.0151953 0)
(-0.00400052 -0.00909691 0)
(-0.000319623 -0.00275405 0)
(-0.000580053 0.00587388 0)
(-0.00552084 0.0155066 0)
(-0.0136636 0.0224097 0)
(-0.0236837 0.0264046 0)
(-0.0344533 0.0277793 0)
(-0.0451285 0.0269333 0)
(-0.055034 0.0242216 0)
(-0.063603 0.019903 0)
(-0.0703295 0.0141654 0)
(-0.0747475 0.00719426 0)
(-0.0764379 -0.000741617 0)
(-0.0750663 -0.00920888 0)
(-0.0704503 -0.0175537 0)
(-0.0626522 -0.0248887 0)
(-0.0520849 -0.030156 0)
(-0.0395993 -0.0322908 0)
(-0.0265099 -0.0304974 0)
(-0.0144891 -0.0245956 0)
(-0.00529319 -0.0153275 0)
(-0.000459688 -0.00505081 0)
(-0.000702176 0.00896227 0)
(-0.00657311 0.0228562 0)
(-0.0161745 0.0323357 0)
(-0.0278719 0.0376336 0)
(-0.0403623 0.0393192 0)
(-0.0527191 0.0380045 0)
(-0.0642324 0.0341883 0)
(-0.0743162 0.0282133 0)
(-0.0824355 0.020311 0)
(-0.0880702 0.0106976 0)
(-0.0907109 -0.000308126 0)
(-0.0898946 -0.0121695 0)
(-0.0852808 -0.0240371 0)
(-0.0767703 -0.0347101 0)
(-0.064664 -0.0426903 0)
(-0.0498243 -0.0463863 0)
(-0.0337809 -0.0444992 0)
(-0.0186673 -0.0365501 0)
(-0.00685071 -0.0233689 0)
(-0.000632372 -0.00801638 0)
(-0.000815376 0.0125772 0)
(-0.00760827 0.031414 0)
(-0.0186413 0.0438053 0)
(-0.0319987 0.0505308 0)
(-0.0462066 0.05254 0)
(-0.0602735 0.0507234 0)
(-0.0734786 0.0457538 0)
(-0.0852396 0.0380587 0)
(-0.0950108 0.0278917 0)
(-0.102224 0.0154617 0)
(-0.106269 0.00108929 0)
(-0.106519 -0.0146321 0)
(-0.102407 -0.0306889 0)
(-0.0935773 -0.0455531 0)
(-0.0801035 -0.0571988 0)
(-0.0627545 -0.0633217 0)
(-0.0432367 -0.0618478 0)
(-0.0242396 -0.0517236 0)
(-0.00897962 -0.033741 0)
(-0.000878405 -0.0118457 0)
(-0.000924739 0.0167309 0)
(-0.00868365 0.0411854 0)
(-0.0211624 0.0568246 0)
(-0.0361921 0.0651062 0)
(-0.0521253 0.0674697 0)
(-0.0679267 0.0651569 0)
(-0.0828917 0.0590482 0)
(-0.0964712 0.0496552 0)
(-0.108135 0.0372252 0)
(-0.117286 0.0219088 0)
(-0.123218 0.00396026 0)
(-0.125121 -0.0160464 0)
(-0.12215 -0.0369999 0)
(-0.113591 -0.0570689 0)
(-0.0991362 -0.0736305 0)
(-0.0792843 -0.0834521 0)
(-0.0557864 -0.0833049 0)
(-0.0319191 -0.0711025 0)
(-0.0120434 -0.0473054 0)
(-0.00124738 -0.0169041 0)
(-0.00103411 0.0214642 0)
(-0.00984254 0.0522116 0)
(-0.0237976 0.0714219 0)
(-0.0405017 0.0813678 0)
(-0.0581217 0.0841089 0)
(-0.0756024 0.0813235 0)
(-0.0922881 0.0741384 0)
(-0.1077 0.0631495 0)
(-0.121361 0.0485675 0)
(-0.132687 0.030427 0)
(-0.140909 0.00883187 0)
(-0.145052 -0.0157699 0)
(-0.143974 -0.0422814 0)
(-0.136518 -0.0686552 0)
(-0.121827 -0.0916641 0)
(-0.0998714 -0.106951 0)
(-0.0721632 -0.109654 0)
(-0.0424376 -0.095936 0)
(-0.0164799 -0.0652943 0)
(-0.00180257 -0.0237592 0)
(-0.00114875 0.0268423 0)
(-0.0111256 0.0645524 0)
(-0.0265789 0.0876144 0)
(-0.0449031 0.0992697 0)
(-0.0640567 0.102361 0)
(-0.0829923 0.0991047 0)
(-0.101141 0.0909214 0)
(-0.118139 0.078497 0)
(-0.133618 0.06198 0)
(-0.147067 0.0412348 0)
(-0.15773 0.0161266 0)
(-0.164539 -0.0131509 0)
(-0.166103 -0.0456775 0)
(-0.160804 -0.0793675 0)
(-0.147091 -0.110503 0)
(-0.124091 -0.133512 0)
(-0.0926098 -0.141403 0)
(-0.0564157 -0.127566 0)
(-0.0228092 -0.08931 0)
(-0.00262775 -0.0332298 0)
(-0.00128076 0.0329599 0)
(-0.0125936 0.078276 0)
(-0.0295385 0.105374 0)
(-0.04932 0.118652 0)
(-0.0696586 0.121947 0)
(-0.0895504 0.11814 0)
(-0.108559 0.108998 0)
(-0.126487 0.0953127 0)
(-0.143138 0.0771604 0)
(-0.158165 0.0541986 0)
(-0.170943 0.0259804 0)
(-0.180447 -0.00768592 0)
(-0.185183 -0.0462605 0)
(-0.183171 -0.0878964 0)
(-0.172119 -0.12868 0)
(-0.150022 -0.161968 0)
(-0.116355 -0.178301 0)
(-0.0740754 -0.167047 0)
(-0.0316007 -0.12123 0)
(-0.00383597 -0.046446 0)
(-0.00145949 0.0399659 0)
(-0.0143666 0.0934665 0)
(-0.0327538 0.124594 0)
(-0.0536584 0.139171 0)
(-0.0745384 0.142312 0)
(-0.0944917 0.137705 0)
(-0.113275 0.127531 0)
(-0.130914 0.112711 0)
(-0.14746 0.0932586 0)
(-0.162833 0.0686232 0)
(-0.176688 0.0380114 0)
(-0.188246 0.000752186 0)
(-0.196161 -0.043235 0)
(-0.198341 -0.0926705 0)
(-0.191908 -0.143957 0)
(-0.17359 -0.189901 0)
(-0.140896 -0.21867 0)
(-0.0947121 -0.21446 0)
(-0.0433359 -0.162907 0)
(-0.00557882 -0.0649063 0)
(-0.00175147 0.04812 0)
(-0.0166896 0.110253 0)
(-0.0364118 0.145052 0)
(-0.0578402 0.160209 0)
(-0.0781881 0.1625 0)
(-0.0967695 0.156586 0)
(-0.113626 0.145114 0)
(-0.129083 0.129162 0)
(-0.14351 0.108719 0)
(-0.157197 0.0830641 0)
(-0.170226 0.0510812 0)
(-0.182323 0.0115813 0)
(-0.192591 -0.0362699 0)
(-0.199214 -0.0921591 0)
(-0.199171 -0.15348 0)
(-0.188128 -0.213446 0)
(-0.161237 -0.25871 0)
(-0.115894 -0.267872 0)
(-0.0580481 -0.215464 0)
(-0.00805088 -0.0904813 0)
(-0.00229822 0.0579091 0)
(-0.0200426 0.128866 0)
(-0.0408845 0.166341 0)
(-0.061795 0.180735 0)
(-0.0798919 0.181003 0)
(-0.0949447 0.172932 0)
(-0.10744 0.159652 0)
(-0.118101 0.142412 0)
(-0.127689 0.121216 0)
(-0.136937 0.0952503 0)
(-0.146466 0.0631666 0)
(-0.156659 0.0233198 0)
(-0.167403 -0.0258847 0)
(-0.177669 -0.0854012 0)
(-0.184943 -0.154312 0)
(-0.184521 -0.227567 0)
(-0.169428 -0.292135 0)
(-0.132521 -0.322133 0)
(-0.0745649 -0.27798 0)
(-0.011466 -0.125229 0)
(-0.00337287 0.0702523 0)
(-0.025299 0.149696 0)
(-0.0467513 0.187697 0)
(-0.0652626 0.19903 0)
(-0.0783438 0.195494 0)
(-0.0867052 0.184064 0)
(-0.091552 0.168271 0)
(-0.0941374 0.149485 0)
(-0.0956671 0.127736 0)
(-0.0973214 0.102198 0)
(-0.100259 0.0714263 0)
(-0.105562 0.0335035 0)
(-0.114062 -0.0137977 0)
(-0.12593 -0.0726866 0)
(-0.139946 -0.144403 0)
(-0.15223 -0.227034 0)
(-0.154832 -0.310575 0)
(-0.136108 -0.368022 0)
(-0.0892178 -0.345533 0)
(-0.0159088 -0.170748 0)
(-0.0054034 0.0869239 0)
(-0.0338096 0.173299 0)
(-0.0544443 0.207509 0)
(-0.0668648 0.212067 0)
(-0.0703086 0.202314 0)
(-0.0673416 0.186161 0)
(-0.0602772 0.167226 0)
(-0.0510187 0.14681 0)
(-0.0411929 0.124882 0)
(-0.0323163 0.100628 0)
(-0.0259222 0.0726388 0)
(-0.0236223 0.0389679 0)
(-0.027081 -0.00288622 0)
(-0.0377437 -0.056026 0)
(-0.0562735 -0.12371 0)
(-0.0810454 -0.20804 0)
(-0.105316 -0.305096 0)
(-0.114751 -0.392494 0)
(-0.094136 -0.407288 0)
(-0.0207953 -0.226876 0)
(-0.00892507 0.111959 0)
(-0.0467444 0.20008 0)
(-0.0620406 0.221813 0)
(-0.0603791 0.214034 0)
(-0.0462302 0.19545 0)
(-0.0253348 0.173768 0)
(-0.00130724 0.151881 0)
(0.0234428 0.130554 0)
(0.04713 0.109497 0)
(0.0682319 0.0878169 0)
(0.0851889 0.0642234 0)
(0.0962322 0.0369725 0)
(0.0992533 0.00370597 0)
(0.0919577 -0.0387604 0)
(0.0718725 -0.0947945 0)
(0.0373354 -0.170048 0)
(-0.00890691 -0.268714 0)
(-0.0538858 -0.380447 0)
(-0.0759782 -0.44569 0)
(-0.0236145 -0.290019 0)
(-0.0157271 0.155239 0)
(-0.0608254 0.227919 0)
(-0.0543321 0.219942 0)
(-0.0212893 0.193545 0)
(0.0223346 0.165703 0)
(0.0682553 0.140261 0)
(0.112852 0.117868 0)
(0.154262 0.0981559 0)
(0.191325 0.0803169 0)
(0.223134 0.0632756 0)
(0.248648 0.045898 0)
(0.26633 0.0269337 0)
(0.274242 0.00453672 0)
(0.269974 -0.0238023 0)
(0.250015 -0.0620167 0)
(0.209807 -0.116963 0)
(0.145932 -0.199881 0)
(0.0634052 -0.318599 0)
(-0.0171463 -0.436378 0)
(-0.0169048 -0.346622 0)
(-0.0217096 0.210839 0)
(-0.0363079 0.235299 0)
(0.0412548 0.179243 0)
(0.128366 0.137934 0)
(0.206957 0.107614 0)
(0.275477 0.0842789 0)
(0.334513 0.0662684 0)
(0.384748 0.0521523 0)
(0.426725 0.0406473 0)
(0.460859 0.0306525 0)
(0.486562 0.0214619 0)
(0.503827 0.0119564 0)
(0.511596 0.000915702 0)
(0.507499 -0.0131546 0)
(0.487354 -0.0323057 0)
(0.445879 -0.0612297 0)
(0.374217 -0.112111 0)
(0.262395 -0.206548 0)
(0.112339 -0.341175 0)
(0.0341279 -0.332809 0)
(0.243025 0.109697 0)
(0.316672 0.0980491 0)
(0.450035 0.0575246 0)
(0.555504 0.0352971 0)
(0.629229 0.0233143 0)
(0.682932 0.0159928 0)
(0.723479 0.0112835 0)
(0.754522 0.00816831 0)
(0.778317 0.00601081 0)
(0.796264 0.00439948 0)
(0.809113 0.00301537 0)
(0.81696 0.00163931 0)
(0.81931 0.000121834 0)
(0.814987 -0.00166464 0)
(0.80164 -0.00412565 0)
(0.774999 -0.00793343 0)
(0.725254 -0.015303 0)
(0.634445 -0.0309007 0)
(0.461962 -0.0798321 0)
(0.302798 -0.12384 0)
)
;

boundaryField
{
    movingWall
    {
        type            fixedValue;
        value           uniform (1 0 0);
    }
    fixedWalls
    {
        type            fixedValue;
        value           uniform (0 0 0);
    }
    frontAndBack
    {
        type            empty;
    }
}


// ************************************************************************* //
