/*--------------------------------*- C++ -*----------------------------------*\
  =========                 |
  \\      /  F ield         | OpenFOAM: The Open Source CFD Toolbox
   \\    /   O peration     | Website:  https://openfoam.org
    \\  /    A nd           | Version:  13
     \\/     M anipulation  |
\*---------------------------------------------------------------------------*/
FoamFile
{
    format      ascii;
    class       volScalarField;
    location    "24";
    object      p;
}
// * * * * * * * * * * * * * * * * * * * * * * * * * * * * * * * * * * * * * //

dimensions      [0 2 -2 0 0 0 0];

internalField   nonuniform List<scalar> 
400
(
9.77158e-07
-0.000571415
-0.00121497
-0.0017178
-0.00195811
-0.00188356
-0.00146931
-0.000704338
0.000402485
0.00180713
0.00341585
0.00507616
0.00659219
0.00775224
0.00838096
0.00839682
0.00785658
0.00697019
0.00604933
0.00549567
0.000570909
-1.93333e-05
-0.000568673
-0.000955991
-0.00113095
-0.00106089
-0.000724854
-0.000108083
0.000789954
0.00194063
0.00327096
0.00466129
0.00594187
0.00693099
0.00747544
0.00750302
0.00706048
0.00632014
0.00554459
0.00497398
0.00124663
0.000493923
-8.57535e-05
-0.000440353
-0.000605097
-0.000575211
-0.000336171
0.000133736
0.000850877
0.00180809
0.00295606
0.004193
0.00536564
0.00629504
0.00682049
0.00685417
0.00642205
0.00566952
0.0048103
0.00403856
0.0017415
0.000764635
7.46131e-05
-0.000320955
-0.000536082
-0.000591648
-0.000477105
-0.000158989
0.000401243
0.00122334
0.00228295
0.00349414
0.00470298
0.00571101
0.00632069
0.00639947
0.00593486
0.00505195
0.00394981
0.00284587
0.00179636
0.00059668
-0.000226728
-0.00070383
-0.00101709
-0.00120612
-0.00125818
-0.00112176
-0.0007292
-2.64825e-05
0.000993127
0.00226498
0.00363144
0.00486262
0.00570005
0.0059337
0.00548181
0.00443693
0.00300141
0.0014636
0.00119559
-0.000202053
-0.00116227
-0.00175165
-0.00221031
-0.00258948
-0.00286798
-0.00296983
-0.00279048
-0.00223142
-0.00124253
0.000152064
0.00179438
0.00342134
0.0046917
0.0052762
0.00497338
0.00380719
0.00198056
-0.000102464
-0.000240679
-0.00179908
-0.00289117
-0.00362108
-0.00427649
-0.00491533
-0.00550364
-0.00593599
-0.00606292
-0.00572673
-0.00480516
-0.00328342
-0.00126861
0.000948376
0.00292792
0.00417145
0.00428083
0.00313713
0.000904231
-0.00185459
-0.00265089
-0.00432525
-0.00554008
-0.00643802
-0.00734576
-0.00832626
-0.00933227
-0.010227
-0.0108094
-0.0108485
-0.0101315
-0.00853696
-0.00610507
-0.00311034
-8.46015e-05
0.00225678
0.00321434
0.00239695
-0.000175671
-0.0037512
-0.00612015
-0.00786047
-0.00918344
-0.0102704
-0.0114815
-0.0128877
-0.0144326
-0.0159509
-0.0171874
-0.0178254
-0.017533
-0.0160404
-0.0132508
-0.00935532
-0.00493397
-0.000939485
0.0015099
0.00155635
-0.00113538
-0.00564497
-0.0106701
-0.0124223
-0.013826
-0.0151005
-0.0166405
-0.0185339
-0.0207251
-0.0230282
-0.025138
-0.0266466
-0.0270815
-0.0259749
-0.0230317
-0.0182516
-0.0121655
-0.00592002
-0.00114032
0.000604886
-0.00172955
-0.00719327
-0.0162589
-0.0179638
-0.0193941
-0.0208045
-0.0226397
-0.0250213
-0.0279091
-0.031109
-0.0342748
-0.0369111
-0.0383924
-0.0380037
-0.0352813
-0.0298309
-0.0220026
-0.0130041
-0.00495772
-0.000373622
-0.00151415
-0.00771878
-0.0228012
-0.0243883
-0.0257409
-0.0271466
-0.0291415
-0.0319085
-0.03544
-0.0395468
-0.0438521
-0.0477817
-0.050577
-0.0513743
-0.0491605
-0.0433912
-0.0339863
-0.0219753
-0.00980377
-0.00102278
0.000281925
-0.00599814
-0.0302207
-0.0315844
-0.0326677
-0.0337901
-0.0356661
-0.0385777
-0.0425665
-0.0474524
-0.0528315
-0.0580597
-0.0622481
-0.0643077
-0.0630195
-0.0573293
-0.0466904
-0.0317027
-0.014799
-0.000415132
0.00496742
2.45668e-05
-0.0385581
-0.0394876
-0.0399593
-0.040325
-0.0416329
-0.0443074
-0.0484432
-0.0538567
-0.0601031
-0.0664626
-0.0719266
-0.0752187
-0.0748677
-0.069419
-0.0578048
-0.04
-0.0180214
0.00328133
0.0147003
0.0135573
-0.0481728
-0.0481551
-0.0474016
-0.0462823
-0.0464101
-0.0483692
-0.0522792
-0.0579107
-0.0647368
-0.0719327
-0.078358
-0.0825587
-0.0828299
-0.0773717
-0.0646434
-0.0439353
-0.0165419
0.0130204
0.0329325
0.0392821
-0.060233
-0.0579559
-0.0548655
-0.0512118
-0.0494254
-0.0501765
-0.0535183
-0.0590914
-0.0662176
-0.0739162
-0.080877
-0.0854511
-0.0857049
-0.0795181
-0.0649404
-0.04061
-0.00697768
0.032818
0.0647949
0.0836779
-0.0774796
-0.0694715
-0.0620859
-0.054548
-0.0501375
-0.0493234
-0.0519026
-0.057259
-0.064484
-0.0723827
-0.0794377
-0.0837763
-0.0832166
-0.0752815
-0.0576202
-0.0282103
0.0133533
0.0666618
0.115753
0.154808
-0.108924
-0.0850386
-0.0697721
-0.0563904
-0.0485398
-0.0458798
-0.0476226
-0.0527132
-0.0599151
-0.0677749
-0.0745503
-0.0781381
-0.0761027
-0.0655412
-0.0436422
-0.00744429
0.0447437
0.114933
0.188079
0.263281
-0.168692
-0.100744
-0.073092
-0.0522872
-0.0413092
-0.0376985
-0.0394406
-0.0448637
-0.0524139
-0.0604449
-0.0670719
-0.070046
-0.0666859
-0.0537871
-0.0278888
0.0154106
0.0800722
0.172761
0.285855
0.445986
-0.402753
-0.13903
-0.0734581
-0.0447292
-0.0305708
-0.0266164
-0.0290843
-0.0353719
-0.0436523
-0.0522054
-0.0591221
-0.0621437
-0.0586159
-0.0452127
-0.0174498
0.0310795
0.108496
0.236657
0.427488
0.79368
)
;

boundaryField
{
    movingWall
    {
        type            zeroGradient;
    }
    fixedWalls
    {
        type            zeroGradient;
    }
    frontAndBack
    {
        type            empty;
    }
}


// ************************************************************************* //
