/*--------------------------------*- C++ -*----------------------------------*\
  =========                 |
  \\      /  F ield         | OpenFOAM: The Open Source CFD Toolbox
   \\    /   O peration     | Website:  https://openfoam.org
    \\  /    A nd           | Version:  13
     \\/     M anipulation  |
\*---------------------------------------------------------------------------*/
FoamFile
{
    format      ascii;
    class       surfaceScalarField;
    location    "24";
    object      phi_0;
}
// * * * * * * * * * * * * * * * * * * * * * * * * * * * * * * * * * * * * * //

dimensions      [0 3 -1 0 0 0 0];

internalField   nonuniform List<scalar> 
760
(
3.4282e-06
-3.42783e-06
-3.88522e-05
4.22802e-05
-0.000127898
8.90459e-05
-0.000248503
0.000120605
-0.000385421
0.000136917
-0.00052582
0.000140399
-0.000658401
0.00013258
-0.000772114
0.000113714
-0.000855611
8.3497e-05
-0.000897822
4.2212e-05
-0.000889679
-8.14262e-06
-0.000826646
-6.30322e-05
-0.000711352
-0.000115294
-0.000555422
-0.00015593
-0.000379443
-0.000175979
-0.000210284
-0.000169159
-7.56863e-05
-0.000134598
3.10469e-06
-7.87911e-05
2.04615e-05
-1.73576e-05
2.04609e-05
-4.55957e-05
4.21682e-05
-0.000200519
0.000197204
-0.000452329
0.000340856
-0.000769786
0.00043806
-0.00112017
0.000487303
-0.00147345
0.000493676
-0.00180168
0.000460808
-0.00207764
0.00038968
-0.00227467
0.000280523
-0.00236839
0.000135937
-0.00234045
-3.60811e-05
-0.00218328
-0.000220201
-0.00190493
-0.000393651
-0.00153203
-0.000528822
-0.00110941
-0.000598601
-0.000694564
-0.000584007
-0.000346846
-0.000482316
-0.000112462
-0.000313177
-7.91378e-06
-0.000121906
1.25466e-05
-0.000106262
0.00014843
-0.000385347
0.000476289
-0.000793432
0.00074894
-0.00128398
0.000928609
-0.0018124
0.00101572
-0.00233739
0.00101867
-0.0028199
0.000943321
-0.00322193
0.000791708
-0.00350689
0.000565487
-0.00364219
0.000271235
-0.00360373
-7.45357e-05
-0.00338168
-0.000442255
-0.00298611
-0.000789216
-0.00245104
-0.00106389
-0.00183461
-0.00121503
-0.00121344
-0.00120518
-0.000669653
-0.0010261
-0.000271787
-0.000711044
-5.39014e-05
-0.000339792
-4.13553e-05
-0.000163715
0.000312145
-0.000562327
0.000874901
-0.00111793
0.00130454
-0.00176633
0.001577
-0.00245249
0.00170188
-0.00312742
0.0016936
-0.00374516
0.00156106
-0.00426102
0.00130756
-0.00463185
0.00093632
-0.0048187
0.000458088
-0.00479147
-0.000101769
-0.00453501
-0.000698718
-0.00405586
-0.00126836
-0.00338821
-0.00173155
-0.00259671
-0.00200652
-0.00177316
-0.00202873
-0.00102365
-0.00177561
-0.000445833
-0.00128886
-0.000102034
-0.000683592
-0.00014339
-0.000215032
0.000527176
-0.000722273
0.00138214
-0.00141242
0.00199469
-0.00220404
0.00236862
-0.003033
0.00253083
-0.00384514
0.00250574
-0.00459079
0.00230672
-0.00522163
0.0019384
-0.00569007
0.00140476
-0.00595123
0.000719247
-0.00596707
-8.59228e-05
-0.00571264
-0.000953149
-0.00518417
-0.00179682
-0.0044082
-0.00250752
-0.00344931
-0.00296541
-0.00241208
-0.00306596
-0.00143093
-0.00275676
-0.0006438
-0.00207599
-0.000154442
-0.00117295
-0.000297833
-0.000258978
0.000786154
-0.000860219
0.00198338
-0.00166786
0.00280233
-0.00258563
0.00328639
-0.00354227
0.00348748
-0.00448089
0.00344436
-0.00535085
0.00317668
-0.00610279
0.00269033
-0.00668648
0.00198846
-0.00705136
0.00108412
-0.00714953
1.22488e-05
-0.00694166
-0.00116102
-0.00640655
-0.00233194
-0.00555402
-0.00336005
-0.00443965
-0.00407978
-0.00317561
-0.00433
-0.00192772
-0.00400465
-0.000887504
-0.00311621
-0.000218631
-0.00184182
-0.000516464
-0.000294167
0.00108032
-0.000971253
0.00266047
-0.00187474
0.00370582
-0.00289686
0.00430852
-0.00396169
0.00455231
-0.00501197
0.00449464
-0.00599879
0.00416349
-0.00687442
0.00356597
-0.00758825
0.00270228
-0.00808523
0.0015811
-0.00830706
0.000234074
-0.00819717
-0.0012709
-0.00771057
-0.00281854
-0.00683042
-0.0042402
-0.00559066
-0.00531955
-0.00409955
-0.0058211
-0.00255111
-0.00555308
-0.00120276
-0.00446456
-0.000303998
-0.00274059
-0.000820461
-0.000319015
0.00139934
-0.00105012
0.00339157
-0.00202255
0.00467825
-0.00312053
0.0054065
-0.00426587
0.00569765
-0.00540331
0.00563208
-0.00648831
0.00524849
-0.00747784
0.0045555
-0.00832411
0.00354856
-0.00897067
0.00222765
-0.00935113
0.000614527
-0.0093918
-0.00123023
-0.00902051
-0.00318983
-0.00818463
-0.00507608
-0.00688053
-0.00662364
-0.00519256
-0.00750907
-0.00332792
-0.00741773
-0.00161482
-0.00617765
-0.000420961
-0.00393445
-0.00124142
-0.000332333
0.00173167
-0.00109253
0.00415177
-0.00210169
0.00568741
-0.00323903
0.00654384
-0.00442614
0.00688476
-0.00561189
0.00681783
-0.0067587
0.0063953
-0.00783171
0.00562851
-0.00879035
0.00450719
-0.00958207
0.00301936
-0.0101381
0.00117053
-0.0103725
-0.00099579
-0.0101877
-0.00337467
-0.00948983
-0.00577393
-0.00822175
-0.00789171
-0.00641596
-0.00931486
-0.00426117
-0.00957252
-0.00214354
-0.00829529
-0.000580688
-0.00549731
-0.00182211
-0.000334376
0.00206605
-0.0010977
0.00491509
-0.0021074
0.00669712
-0.00323961
0.00767604
-0.00441734
0.00806249
-0.00559545
0.00799594
-0.00674595
0.0075458
-0.00784574
0.0067283
-0.00886669
0.00552815
-0.00976728
0.00391995
-0.0104854
0.00188865
-0.010933
-0.000548173
-0.0109955
-0.00331217
-0.0105404
-0.00622905
-0.00944612
-0.00898599
-0.00766295
-0.011098
-0.00531237
-0.0119231
-0.00279567
-0.010812
-0.000794593
-0.00749838
-0.0026167
-0.000328317
0.00239436
-0.00107185
0.00565863
-0.00204499
0.00767026
-0.00312133
0.00875238
-0.00422686
0.00916802
-0.00532457
0.00909365
-0.00639867
0.0086199
-0.00744138
0.00777101
-0.00844223
0.00652899
-0.00937843
0.00485616
-0.0102055
0.00271569
-0.0108471
9.34499e-05
-0.0111876
-0.00297165
-0.0110687
-0.00634799
-0.0103061
-0.00974862
-0.00874484
-0.0126592
-0.00638124
-0.0142867
-0.00355205
-0.0136412
-0.00107267
-0.00997776
-0.00368937
-0.000322243
0.00271661
-0.00103247
0.00636886
-0.00193576
0.00857354
-0.00290237
0.009719
-0.00386393
0.0101296
-0.00479497
0.0100247
-0.00569504
0.00951997
-0.00657492
0.00865088
-0.00744592
0.0074
-0.00831041
0.00572065
-0.0091514
0.00355668
-0.00992002
0.000862067
-0.0105192
-0.00237248
-0.0107892
-0.00607796
-0.0105023
-0.0100355
-0.00939579
-0.0137658
-0.00729056
-0.0163919
-0.00434984
-0.0165819
-0.00141931
-0.0129083
-0.00510868
-0.000332003
0.00304861
-0.00101332
0.00705017
-0.00182232
0.00938255
-0.0026251
0.0105218
-0.00336501
0.0108695
-0.00403455
0.0106942
-0.00465312
0.0101386
-0.00525284
0.0092506
-0.00586905
0.0080162
-0.0065324
0.006384
-0.00725963
0.00428391
-0.00804049
0.00164292
-0.00881793
-0.00159503
-0.00946152
-0.00543438
-0.00973803
-0.00975898
-0.00930456
-0.0141993
-0.00778753
-0.017909
-0.00506429
-0.0193051
-0.00182476
-0.0161478
-0.00693343
-0.000385756
0.00343437
-0.00106991
0.00773433
-0.0017712
0.0100838
-0.00235462
0.0111052
-0.00278908
0.0113039
-0.00309669
0.0110018
-0.00332334
0.0103652
-0.00352495
0.00945221
-0.00376077
0.00825203
-0.0040887
0.00671194
-0.00455928
0.00475449
-0.00520553
0.00228917
-0.00602453
-0.00077603
-0.00694548
-0.00451344
-0.00778002
-0.00892443
-0.00816601
-0.0138133
-0.00756672
-0.0185082
-0.0054978
-0.0213741
-0.00225067
-0.019395
-0.00918411
-0.000530657
0.00396502
-0.00128313
0.0084868
-0.00186544
0.0106662
-0.00215933
0.0113991
-0.00218814
0.0113327
-0.00202264
0.0108363
-0.00174403
0.0100866
-0.00143403
0.00914221
-0.00117347
0.00799147
-0.00104266
0.00658112
-0.00112025
0.00483209
-0.00147862
0.00264754
-0.00217175
-8.28901e-05
-0.00320764
-0.00347755
-0.00449128
-0.00764079
-0.00572553
-0.012579
-0.00630205
-0.0179317
-0.00537672
-0.0222994
-0.00260696
-0.0221647
-0.0117911
-0.000834816
0.00479984
-0.00174553
0.00939751
-0.00215876
0.0110794
-0.0020349
0.0112752
-0.0015091
0.0108069
-0.000728079
0.0100553
0.000182762
0.00917575
0.00111628
0.00820869
0.0019751
0.00713266
0.00266442
0.00589179
0.00308714
0.00440937
0.00314215
0.00259254
0.00272772
0.000331531
0.00175723
-0.00250706
0.000204746
-0.0060883
-0.00178065
-0.0105936
-0.00366212
-0.0160503
-0.00434637
-0.0216151
-0.00271601
-0.0237951
-0.0145071
-0.00136388
0.00616372
-0.00246883
0.0105025
-0.0024823
0.0110929
-0.00164355
0.0104365
-0.000302088
0.00946548
0.00129559
0.00845763
0.00298326
0.00748808
0.00463906
0.0065529
0.00616213
0.00560959
0.00745638
0.00459755
0.00841986
0.00344589
0.00893778
0.00207461
0.00887828
0.000391034
0.00809511
-0.00172389
0.00644797
-0.00444116
0.0038892
-0.00803487
0.000718887
-0.01288
-0.00196397
-0.0189323
-0.00228473
-0.0234743
-0.0167918
-0.00213756
0.00830129
-0.00294211
0.011307
-0.00173772
0.00988847
0.000446017
0.00825274
0.00298626
0.00692524
0.00559716
0.00584673
0.00812934
0.0049559
0.0104888
0.00419343
0.0126029
0.00349551
0.0143981
0.00280234
0.0157878
0.00205618
0.0166636
0.00119879
0.0168864
0.000168283
0.0162813
-0.00111878
0.0146298
-0.00278965
0.0116947
-0.00509983
0.007386
-0.00857123
0.00239477
-0.013941
-0.000907709
-0.0201718
-0.0176995
-0.00248022
0.0107815
-5.76582e-06
0.00883254
0.00417385
0.00570886
0.00830304
0.00412355
0.01207
0.00315831
0.0154477
0.00246896
0.0184411
0.00196257
0.0210592
0.0015753
0.0233012
0.00125347
0.0251467
0.000956817
0.0265496
0.000653312
0.0274309
0.000317549
0.0276735
-7.43524e-05
0.0271149
-0.000560225
0.0255136
-0.00118833
0.0225067
-0.00209291
0.0175901
-0.00365462
0.010381
-0.00673195
0.00246236
-0.0122532
-0.0152372
0.0107815
0.0196141
0.0253229
0.0294465
0.0326048
0.0350737
0.0370363
0.0386116
0.0398651
0.0408219
0.0414752
0.0417928
0.0417184
0.0411582
0.0399698
0.0378769
0.0342223
0.0274904
0.0152372
)
;

boundaryField
{
    movingWall
    {
        type            calculated;
        value           uniform 0;
    }
    fixedWalls
    {
        type            calculated;
        value           uniform 0;
    }
    frontAndBack
    {
        type            empty;
    }
}


// ************************************************************************* //
