/*--------------------------------*- C++ -*----------------------------------*\
  =========                 |
  \\      /  F ield         | OpenFOAM: The Open Source CFD Toolbox
   \\    /   O peration     | Website:  https://openfoam.org
    \\  /    A nd           | Version:  13
     \\/     M anipulation  |
\*---------------------------------------------------------------------------*/
FoamFile
{
    format      ascii;
    class       volVectorField;
    location    "24";
    object      U;
}
// * * * * * * * * * * * * * * * * * * * * * * * * * * * * * * * * * * * * * //

dimensions      [0 1 -1 0 0 0 0];

internalField   nonuniform List<vector> 
400
(
(0.000166271 -0.000169669 0)
(-0.000158113 4.23783e-05 0)
(-0.00151129 0.000271729 0)
(-0.00368132 0.000418026 0)
(-0.00633571 0.000494636 0)
(-0.00918389 0.000522032 0)
(-0.0119854 0.000509975 0)
(-0.0145175 0.000458102 0)
(-0.0165534 0.0003607 0)
(-0.0178613 0.000213258 0)
(-0.018229 1.91932e-05 0)
(-0.0175095 -0.000204959 0)
(-0.015676 -0.000427247 0)
(-0.0128706 -0.000603808 0)
(-0.00942527 -0.000688465 0)
(-0.00583566 -0.000647242 0)
(-0.00267874 -0.000472595 0)
(-0.000477584 -0.000192057 0)
(0.000478501 0.000117142 0)
(0.00029041 0.000283776 0)
(-5.6907e-05 0.000156404 0)
(-0.00200447 0.00187447 0)
(-0.00618324 0.00362361 0)
(-0.0120744 0.0048298 0)
(-0.0189579 0.00546078 0)
(-0.0261895 0.00559016 0)
(-0.0331902 0.00526921 0)
(-0.039407 0.00450767 0)
(-0.0442912 0.00329878 0)
(-0.0473145 0.00166111 0)
(-0.0480266 -0.000319962 0)
(-0.0461463 -0.0024644 0)
(-0.0416642 -0.00449484 0)
(-0.0349279 -0.00606894 0)
(-0.0266726 -0.00684957 0)
(-0.0179649 -0.00660343 0)
(-0.0100382 -0.00530323 0)
(-0.00402578 -0.00320344 0)
(-0.000625989 -0.000897244 0)
(0.000198986 0.000526119 0)
(-0.000347956 0.00167328 0)
(-0.00428324 0.00621638 0)
(-0.0113408 0.010242 0)
(-0.0206335 0.0129609 0)
(-0.031126 0.014327 0)
(-0.0419448 0.0144636 0)
(-0.0522897 0.0134617 0)
(-0.0613853 0.0113486 0)
(-0.0684707 0.00813988 0)
(-0.0728302 0.00392316 0)
(-0.073869 -0.00106154 0)
(-0.0712216 -0.00637121 0)
(-0.0648732 -0.0113617 0)
(-0.0552632 -0.015258 0)
(-0.0433344 -0.0173018 0)
(-0.0304843 -0.0169606 0)
(-0.0183811 -0.0141553 0)
(-0.00863799 -0.00943282 0)
(-0.00241617 -0.00404699 0)
(1.59825e-05 -6.40904e-05 0)
(-0.000610805 0.00441044 0)
(-0.00647474 0.0130874 0)
(-0.0162913 0.0200169 0)
(-0.0287397 0.0245212 0)
(-0.0424667 0.02666 0)
(-0.0564269 0.0266442 0)
(-0.0696807 0.0246145 0)
(-0.0813174 0.0206222 0)
(-0.0904423 0.0147177 0)
(-0.0962097 0.00707944 0)
(-0.0979 -0.00186498 0)
(-0.0950324 -0.0113644 0)
(-0.087498 -0.0203431 0)
(-0.0756923 -0.0275018 0)
(-0.0606127 -0.0315375 0)
(-0.043866 -0.0314787 0)
(-0.0275176 -0.0270772 0)
(-0.0137429 -0.0191318 0)
(-0.00435764 -0.00960815 0)
(-0.000141538 -0.00159824 0)
(-0.000837245 0.00825813 0)
(-0.00844216 0.0222794 0)
(-0.0207775 0.0326504 0)
(-0.036096 0.0391161 0)
(-0.0527447 0.0420044 0)
(-0.0695475 0.0416849 0)
(-0.0854873 0.0383723 0)
(-0.0995852 0.0321457 0)
(-0.110869 0.0230841 0)
(-0.118393 0.0114452 0)
(-0.121299 -0.00217263 0)
(-0.118928 -0.016722 0)
(-0.110959 -0.0306836 0)
(-0.0975879 -0.0421699 0)
(-0.07971 -0.0491942 0)
(-0.0590354 -0.0501325 0)
(-0.038037 -0.0443306 0)
(-0.0196174 -0.0326766 0)
(-0.00652639 -0.0178493 0)
(-0.00028583 -0.004127 0)
(-0.00102564 0.0130726 0)
(-0.010124 0.0335238 0)
(-0.0246466 0.0478318 0)
(-0.0424762 0.0564255 0)
(-0.0617049 0.0600644 0)
(-0.0810705 0.0593637 0)
(-0.0995322 0.0546459 0)
(-0.1161 0.0460176 0)
(-0.129774 0.0335621 0)
(-0.13953 0.0175688 0)
(-0.144359 -0.00125646 0)
(-0.143356 -0.0216332 0)
(-0.13587 -0.0416344 0)
(-0.121731 -0.0587444 0)
(-0.101538 -0.070132 0)
(-0.0769424 -0.0732193 0)
(-0.0507819 -0.0665566 0)
(-0.026851 -0.0507986 0)
(-0.00920424 -0.029287 0)
(-0.000458521 -0.00779659 0)
(-0.00117046 0.0186882 0)
(-0.0114615 0.046487 0)
(-0.0277517 0.0651722 0)
(-0.0476341 0.0760665 0)
(-0.0690071 0.0805093 0)
(-0.0905697 0.0794498 0)
(-0.111309 0.0733572 0)
(-0.130281 0.0623634 0)
(-0.146508 0.0465168 0)
(-0.158926 0.0260644 0)
(-0.166386 0.00171568 0)
(-0.167705 -0.0251328 0)
(-0.161811 -0.0522379 0)
(-0.148006 -0.0764682 0)
(-0.126359 -0.0940055 0)
(-0.0981967 -0.100957 0)
(-0.0665321 -0.0945119 0)
(-0.0361174 -0.0745179 0)
(-0.0127526 -0.0447657 0)
(-0.000709687 -0.0129314 0)
(-0.00126435 0.0249086 0)
(-0.0123925 0.0607604 0)
(-0.0299389 0.0841789 0)
(-0.0512937 0.097535 0)
(-0.0742251 0.102874 0)
(-0.0974392 0.101566 0)
(-0.120001 0.0942705 0)
(-0.141069 0.0811448 0)
(-0.159753 0.0621596 0)
(-0.175017 0.0374319 0)
(-0.185624 0.00754367 0)
(-0.190148 -0.0261562 0)
(-0.187071 -0.0612717 0)
(-0.175049 -0.0941618 0)
(-0.153372 -0.119969 0)
(-0.122664 -0.13314 0)
(-0.0857025 -0.12879 0)
(-0.0480199 -0.105016 0)
(-0.0175709 -0.0654601 0)
(-0.00110102 -0.0200596 0)
(-0.00130277 0.031506 0)
(-0.0128717 0.0758623 0)
(-0.0310807 0.104248 0)
(-0.0531949 0.120174 0)
(-0.0769085 0.126496 0)
(-0.100975 0.125089 0)
(-0.124581 0.116853 0)
(-0.147049 0.101987 0)
(-0.167655 0.08035 0)
(-0.185486 0.0518474 0)
(-0.199337 0.0167962 0)
(-0.207648 -0.0236954 0)
(-0.208536 -0.0673185 0)
(-0.199991 -0.11016 0)
(-0.180329 -0.146445 0)
(-0.149029 -0.168772 0)
(-0.107977 -0.169417 0)
(-0.0629088 -0.143367 0)
(-0.0240711 -0.0928062 0)
(-0.00171425 -0.0299298 0)
(-0.00129104 0.038239 0)
(-0.0129079 0.0912627 0)
(-0.0311404 0.124675 0)
(-0.0531847 0.14316 0)
(-0.0767029 0.150469 0)
(-0.100528 0.14907 0)
(-0.124012 0.140169 0)
(-0.146702 0.124036 0)
(-0.168123 0.100416 0)
(-0.187614 0.0689493 0)
(-0.20416 0.0295729 0)
(-0.216268 -0.0170426 0)
(-0.221891 -0.0689696 0)
(-0.218486 -0.122403 0)
(-0.203345 -0.171025 0)
(-0.174417 -0.205707 0)
(-0.131882 -0.215327 0)
(-0.0806051 -0.190083 0)
(-0.0326255 -0.128325 0)
(-0.00266233 -0.0435234 0)
(-0.00125434 0.0448954 0)
(-0.0126148 0.106444 0)
(-0.0302611 0.144703 0)
(-0.0513393 0.165522 0)
(-0.0735074 0.173641 0)
(-0.0957155 0.172213 0)
(-0.117528 0.16283 0)
(-0.138771 0.145887 0)
(-0.159309 0.121046 0)
(-0.178852 0.0876766 0)
(-0.196765 0.0452736 0)
(-0.211872 -0.00608726 0)
(-0.222273 -0.065166 0)
(-0.225204 -0.128747 0)
(-0.217117 -0.190612 0)
(-0.194278 -0.240489 0)
(-0.154398 -0.263828 0)
(-0.100008 -0.244439 0)
(-0.0434399 -0.173268 0)
(-0.00409997 -0.0620516 0)
(-0.00125164 0.0513692 0)
(-0.0122784 0.121006 0)
(-0.0288676 0.163598 0)
(-0.0480933 0.186194 0)
(-0.0676363 0.194649 0)
(-0.086629 0.192912 0)
(-0.104914 0.18304 0)
(-0.122659 0.165625 0)
(-0.140133 0.140305 0)
(-0.157519 0.106227 0)
(-0.174716 0.0624546 0)
(-0.19112 0.00839472 0)
(-0.205329 -0.0556312 0)
(-0.21482 -0.127497 0)
(-0.215685 -0.201917 0)
(-0.20275 -0.268571 0)
(-0.17085 -0.310298 0)
(-0.118672 -0.303704 0)
(-0.0563005 -0.228003 0)
(-0.00622676 -0.0868994 0)
(-0.00139809 0.0577865 0)
(-0.0124433 0.134817 0)
(-0.0277732 0.180758 0)
(-0.0443426 0.204085 0)
(-0.0599174 0.211991 0)
(-0.0739501 0.20934 0)
(-0.0866736 0.198723 0)
(-0.0986684 0.180982 0)
(-0.110652 0.155801 0)
(-0.123323 0.12219 0)
(-0.137199 0.0788645 0)
(-0.152406 0.0246064 0)
(-0.168356 -0.0412613 0)
(-0.183288 -0.118066 0)
(-0.193652 -0.202297 0)
(-0.193575 -0.285058 0)
(-0.175269 -0.34842 0)
(-0.132557 -0.362533 0)
(-0.0701696 -0.291081 0)
(-0.00927123 -0.119441 0)
(-0.00190612 0.0647027 0)
(-0.0140342 0.148207 0)
(-0.0282693 0.19581 0)
(-0.0414543 0.218123 0)
(-0.0516246 0.224074 0)
(-0.0588274 0.219556 0)
(-0.0638738 0.20769 0)
(-0.0678435 0.189572 0)
(-0.0719183 0.164971 0)
(-0.0772928 0.132844 0)
(-0.0850793 0.0916946 0)
(-0.09616 0.0398368 0)
(-0.110923 -0.0242864 0)
(-0.128784 -0.101522 0)
(-0.147369 -0.190713 0)
(-0.161286 -0.285915 0)
(-0.161228 -0.371145 0)
(-0.136144 -0.412967 0)
(-0.0826766 -0.358152 0)
(-0.0134056 -0.16057 0)
(-0.00314457 0.0733952 0)
(-0.0185025 0.162167 0)
(-0.0321062 0.20861 0)
(-0.0409995 0.22718 0)
(-0.0439813 0.229169 0)
(-0.0421966 0.221517 0)
(-0.0373126 0.207741 0)
(-0.0310051 0.18908 0)
(-0.0249079 0.165354 0)
(-0.0206317 0.135519 0)
(-0.0197683 0.0979967 0)
(-0.0238433 0.0508654 0)
(-0.0341728 -0.00799947 0)
(-0.0515205 -0.0806673 0)
(-0.0753134 -0.168372 0)
(-0.102004 -0.269208 0)
(-0.122688 -0.372196 0)
(-0.122824 -0.44533 0)
(-0.0895857 -0.421251 0)
(-0.0184329 -0.209887 0)
(-0.00562475 0.0863544 0)
(-0.027808 0.178433 0)
(-0.0409318 0.218876 0)
(-0.0435169 0.229604 0)
(-0.0363862 0.225028 0)
(-0.0226373 0.212832 0)
(-0.00512157 0.196535 0)
(0.0138297 0.177249 0)
(0.0321992 0.154712 0)
(0.0480963 0.127864 0)
(0.0596284 0.095151 0)
(0.0648351 0.0546425 0)
(0.0616893 0.00405256 0)
(0.0482341 -0.0593135 0)
(0.0230714 -0.138466 0)
(-0.0131281 -0.235649 0)
(-0.0542281 -0.347407 0)
(-0.0851014 -0.44971 0)
(-0.0843122 -0.469172 0)
(-0.023146 -0.265286 0)
(-0.00990163 0.10884 0)
(-0.0434621 0.199182 0)
(-0.0533905 0.224717 0)
(-0.0437998 0.221746 0)
(-0.0207349 0.207768 0)
(0.009632 0.190017 0)
(0.0431974 0.171154 0)
(0.0771716 0.151692 0)
(0.109407 0.131054 0)
(0.137996 0.108107 0)
(0.161008 0.0813822 0)
(0.176325 0.0491357 0)
(0.181528 0.00929352 0)
(0.173856 -0.0407848 0)
(0.150325 -0.104776 0)
(0.108551 -0.18791 0)
(0.0498865 -0.295036 0)
(-0.0142628 -0.416839 0)
(-0.0576632 -0.48794 0)
(-0.0247633 -0.323123 0)
(-0.0177456 0.151949 0)
(-0.0614299 0.223707 0)
(-0.052812 0.21733 0)
(-0.0155041 0.194206 0)
(0.0335843 0.170061 0)
(0.0860948 0.147988 0)
(0.138127 0.128378 0)
(0.187457 0.110609 0)
(0.232528 0.0935957 0)
(0.27195 0.0761117 0)
(0.304178 0.056866 0)
(0.327319 0.0344676 0)
(0.338955 0.00734638 0)
(0.336038 -0.0265192 0)
(0.314704 -0.0702869 0)
(0.270302 -0.129855 0)
(0.198589 -0.216062 0)
(0.101852 -0.33806 0)
(0.00367087 -0.456507 0)
(-0.0161355 -0.368896 0)
(-0.0241185 0.208504 0)
(-0.0377426 0.230599 0)
(0.0373637 0.176565 0)
(0.124879 0.136625 0)
(0.205214 0.108633 0)
(0.276868 0.0876927 0)
(0.340585 0.0716092 0)
(0.396731 0.0587758 0)
(0.445424 0.0477844 0)
(0.48644 0.037489 0)
(0.519177 0.0268963 0)
(0.542374 0.0151185 0)
(0.55409 0.00125073 0)
(0.551609 -0.0157963 0)
(0.531048 -0.0378614 0)
(0.486865 -0.0688616 0)
(0.410569 -0.118978 0)
(0.290465 -0.209341 0)
(0.132892 -0.338302 0)
(0.0385653 -0.340273 0)
(0.241947 0.109206 0)
(0.313672 0.0972222 0)
(0.444632 0.0570156 0)
(0.549885 0.0350984 0)
(0.624109 0.0236857 0)
(0.679346 0.0166347 0)
(0.722897 0.0119098 0)
(0.757931 0.00865046 0)
(0.786045 0.00625335 0)
(0.808061 0.00427523 0)
(0.824159 0.00240626 0)
(0.833948 0.000434063 0)
(0.83653 -0.00182139 0)
(0.830445 -0.00451745 0)
(0.813334 -0.00798118 0)
(0.781253 -0.0128891 0)
(0.72586 -0.0212931 0)
(0.629986 -0.0381764 0)
(0.459294 -0.0856695 0)
(0.304877 -0.125718 0)
)
;

boundaryField
{
    movingWall
    {
        type            fixedValue;
        value           uniform (1 0 0);
    }
    fixedWalls
    {
        type            fixedValue;
        value           uniform (0 0 0);
    }
    frontAndBack
    {
        type            empty;
    }
}


// ************************************************************************* //
