/*--------------------------------*- C++ -*----------------------------------*\
  =========                 |
  \\      /  F ield         | OpenFOAM: The Open Source CFD Toolbox
   \\    /   O peration     | Website:  https://openfoam.org
    \\  /    A nd           | Version:  13
     \\/     M anipulation  |
\*---------------------------------------------------------------------------*/
FoamFile
{
    format      ascii;
    class       volScalarField;
    location    "27";
    object      p;
}
// * * * * * * * * * * * * * * * * * * * * * * * * * * * * * * * * * * * * * //

dimensions      [0 2 -2 0 0 0 0];

internalField   nonuniform List<scalar> 
400
(
-4.33118e-09
-0.000512183
-0.00113202
-0.00160478
-0.00181304
-0.00170925
-0.00127111
-0.000490094
0.000622801
0.00202294
0.0036179
0.00526147
0.0067639
0.00792191
0.00856665
0.00861814
0.00812769
0.00729271
0.00643282
0.00589075
0.000518406
-1.14033e-05
-0.000555839
-0.000931507
-0.00108333
-0.000985477
-0.000619077
2.83492e-05
0.000954754
0.00212979
0.00348088
0.00488652
0.00618317
0.00719206
0.00776255
0.00782205
0.00741314
0.00669946
0.00593316
0.00538092
0.00116242
0.0004966
-7.8773e-05
-0.000422407
-0.000559762
-0.000498196
-0.000224908
0.000279645
0.00102864
0.00201225
0.00318048
0.00443211
0.00561769
0.00656276
0.00711089
0.00717579
0.00678043
0.00605769
0.00520754
0.00448704
0.00162033
0.000760776
7.35679e-05
-0.000311632
-0.000492717
-0.000509122
-0.000352279
8.61156e-06
0.000607692
0.00146077
0.00254193
0.0037655
0.00498241
0.00600005
0.00662741
0.00673615
0.00631192
0.00546094
0.00436658
0.00335012
0.00164743
0.000590856
-0.000234153
-0.00070282
-0.000974722
-0.00111428
-0.00111153
-0.000918669
-0.000474133
0.000270402
0.00131931
0.00260591
0.00397827
0.00521272
0.00605945
0.00631614
0.00590177
0.00488413
0.00345032
0.00204348
0.00104195
-0.000191748
-0.00115706
-0.00173696
-0.00214381
-0.00245956
-0.00266687
-0.00269489
-0.00244714
-0.00183258
-0.000803886
0.000605268
0.00224817
0.003867
0.00513147
0.00572493
0.00545122
0.00430308
0.00246989
0.000575117
-0.000366921
-0.00174755
-0.0028478
-0.00356409
-0.00415426
-0.00471217
-0.00520904
-0.00554626
-0.00558452
-0.00517655
-0.00421104
-0.00266661
-0.000657289
0.00153564
0.00348644
0.00471575
0.00483753
0.00369379
0.00143944
-0.00105471
-0.00271331
-0.0042045
-0.00543084
-0.00630865
-0.00713559
-0.00801493
-0.00890582
-0.00968013
-0.0101494
-0.0100956
-0.00931796
-0.00769866
-0.00527874
-0.00232694
0.000640552
0.00293499
0.00387795
0.00302804
0.000406389
-0.00280128
-0.00608387
-0.00764456
-0.0089832
-0.0100424
-0.0111567
-0.0124405
-0.0138451
-0.0152156
-0.0163121
-0.0168332
-0.016461
-0.0149355
-0.0121608
-0.00832587
-0.00399432
-8.56059e-05
0.00231305
0.00227523
-0.000512681
-0.00451523
-0.0105083
-0.0120931
-0.0135185
-0.0147589
-0.0161883
-0.0179402
-0.0199673
-0.0220964
-0.0240395
-0.0254065
-0.0257404
-0.0245941
-0.0216616
-0.0169526
-0.0109812
-0.00485746
-0.000167296
0.00142001
-0.00108336
-0.00585685
-0.0159586
-0.0175165
-0.0189776
-0.0203531
-0.0220697
-0.0242965
-0.0270025
-0.0300084
-0.0329877
-0.0354646
-0.036835
-0.0364338
-0.0336812
-0.0282943
-0.0205883
-0.01173
-0.00380148
0.00053007
-0.00087649
-0.00616533
-0.0223661
-0.0238352
-0.0252322
-0.0266125
-0.0284899
-0.0310976
-0.0344392
-0.0383417
-0.0424508
-0.0462153
-0.0488908
-0.0495916
-0.0474178
-0.0417129
-0.0324216
-0.0205401
-0.00848729
-7.17237e-05
0.00086717
-0.0042612
-0.0296687
-0.0309581
-0.0321035
-0.0332243
-0.0349934
-0.0377511
-0.0415523
-0.0462359
-0.0514234
-0.056496
-0.0605827
-0.0625913
-0.061317
-0.0556815
-0.0451303
-0.0302261
-0.013398
0.000498646
0.00547568
0.00183902
-0.0379103
-0.0388456
-0.0393923
-0.0397947
-0.0410119
-0.043544
-0.0475013
-0.0527219
-0.0587898
-0.0650124
-0.0703995
-0.0736746
-0.0733598
-0.0679786
-0.0564353
-0.0386577
-0.0166687
0.00403828
0.0151896
0.0152847
-0.0474434
-0.0476119
-0.0469132
-0.0458713
-0.045917
-0.0477429
-0.0514825
-0.0569295
-0.0635904
-0.0706706
-0.0770473
-0.0812675
-0.0816094
-0.076251
-0.0636027
-0.042902
-0.0154102
0.0134209
0.0334123
0.0406138
-0.0592754
-0.0576947
-0.0545407
-0.0509814
-0.0491072
-0.0497321
-0.0529073
-0.0582968
-0.0652616
-0.0728552
-0.0797868
-0.0844082
-0.0847552
-0.0786905
-0.0641995
-0.0399006
-0.00613782
0.0324223
0.0645611
0.0832997
-0.0756563
-0.0701703
-0.062247
-0.0546699
-0.050102
-0.049136
-0.0515256
-0.0566776
-0.0637256
-0.0715102
-0.0785315
-0.0829142
-0.0824267
-0.0745888
-0.0569447
-0.0275148
0.0143051
0.0652753
0.1142
0.149971
-0.103715
-0.0875557
-0.0697531
-0.0561569
-0.0482742
-0.0455747
-0.0471916
-0.0521205
-0.0591764
-0.0669508
-0.0737246
-0.0773901
-0.0754398
-0.0649957
-0.0430089
-0.00659716
0.0462492
0.114882
0.19112
0.257916
-0.175614
-0.114591
-0.0735087
-0.0519012
-0.0412072
-0.0374958
-0.0390144
-0.0442524
-0.0516533
-0.059598
-0.0662396
-0.0693176
-0.0661312
-0.0534617
-0.0275523
0.0159685
0.0821367
0.176757
0.30478
0.452242
-0.355488
-0.154963
-0.070296
-0.0427744
-0.0313663
-0.0275285
-0.0295427
-0.0355385
-0.0436211
-0.0520315
-0.0588869
-0.0619322
-0.058427
-0.0450166
-0.0173522
0.030488
0.107966
0.232858
0.434315
0.735424
)
;

boundaryField
{
    movingWall
    {
        type            zeroGradient;
    }
    fixedWalls
    {
        type            zeroGradient;
    }
    frontAndBack
    {
        type            empty;
    }
}


// ************************************************************************* //
