/*--------------------------------*- C++ -*----------------------------------*\
  =========                 |
  \\      /  F ield         | OpenFOAM: The Open Source CFD Toolbox
   \\    /   O peration     | Website:  https://openfoam.org
    \\  /    A nd           | Version:  13
     \\/     M anipulation  |
\*---------------------------------------------------------------------------*/
FoamFile
{
    format      ascii;
    class       volScalarField;
    location    "27";
    object      p;
}
// * * * * * * * * * * * * * * * * * * * * * * * * * * * * * * * * * * * * * //

dimensions      [0 2 -2 0 0 0 0];

internalField   nonuniform List<scalar> 
400
(
6.63446e-07
-0.000571788
-0.00121537
-0.00171823
-0.00195856
-0.00188404
-0.00146983
-0.000704862
0.000401969
0.00180662
0.00341535
0.00507566
0.0065917
0.00775176
0.00838046
0.0083963
0.00785602
0.0069696
0.00604872
0.00549505
0.000570573
-1.96909e-05
-0.000569072
-0.000956413
-0.00113137
-0.00106133
-0.000725333
-0.000108593
0.000789432
0.00194012
0.00327045
0.00466079
0.00594136
0.00693048
0.00747492
0.00750247
0.00705991
0.00631955
0.00554397
0.00497336
0.00124632
0.000493602
-8.61134e-05
-0.000440756
-0.000605523
-0.000575649
-0.000336633
0.000133239
0.000850351
0.00180756
0.00295552
0.00419247
0.00536511
0.0062945
0.00681994
0.0068536
0.00642146
0.0056689
0.00480966
0.00403791
0.0017412
0.000764323
7.42819e-05
-0.00032133
-0.000536501
-0.000592097
-0.000477581
-0.000159499
0.000400697
0.00122277
0.00228238
0.00349357
0.00470241
0.00571044
0.00632011
0.00639887
0.00593424
0.0050513
0.00394914
0.00284518
0.00179607
0.000596354
-0.000227062
-0.000704195
-0.00101751
-0.00120658
-0.0012587
-0.00112232
-0.000729798
-2.71129e-05
0.00099248
0.00226433
0.0036308
0.00486199
0.00569942
0.00593307
0.00548115
0.00443624
0.0030007
0.00146286
0.00119531
-0.000202398
-0.00116263
-0.00175204
-0.00221075
-0.00258999
-0.00286856
-0.00297047
-0.00279118
-0.00223216
-0.00124329
0.000151305
0.00179364
0.00342062
0.004691
0.0052755
0.00497268
0.00380646
0.0019798
-0.000103255
-0.000240986
-0.00179945
-0.00289158
-0.00362153
-0.004277
-0.00491591
-0.00550432
-0.00593675
-0.00606375
-0.00572762
-0.00480608
-0.00328433
-0.0012695
0.000947525
0.00292711
0.00417067
0.00428006
0.00313635
0.000903421
-0.00185543
-0.00265126
-0.00432567
-0.00554055
-0.00643855
-0.00734636
-0.00832695
-0.00933307
-0.0102279
-0.0108104
-0.0108495
-0.0101326
-0.00853808
-0.00610615
-0.00311136
-8.55528e-05
0.00225589
0.00321349
0.00239611
-0.000176532
-0.0037521
-0.00612063
-0.00786098
-0.00918399
-0.010271
-0.0114822
-0.0128885
-0.0144335
-0.015952
-0.0171887
-0.0178267
-0.0175344
-0.0160418
-0.0132521
-0.00935654
-0.0049351
-0.000940514
0.00150895
0.00155544
-0.00113629
-0.00564592
-0.0106707
-0.0124229
-0.0138267
-0.0151012
-0.0166413
-0.0185349
-0.0207262
-0.0230295
-0.0251394
-0.0266481
-0.027083
-0.0259765
-0.0230332
-0.0182531
-0.0121668
-0.0059212
-0.00114138
0.000603905
-0.00173051
-0.00719425
-0.0162597
-0.0179645
-0.0193949
-0.0208053
-0.0226406
-0.0250224
-0.0279103
-0.0311104
-0.0342764
-0.0369127
-0.0383942
-0.0380055
-0.035283
-0.0298325
-0.0220041
-0.0130054
-0.00495888
-0.000374669
-0.00151514
-0.00771978
-0.0228021
-0.0243892
-0.0257418
-0.0271475
-0.0291426
-0.0319097
-0.0354414
-0.0395483
-0.0438538
-0.0477835
-0.0505788
-0.051376
-0.0491623
-0.0433929
-0.0339878
-0.0219767
-0.00980499
-0.00102387
0.000280927
-0.00599912
-0.0302216
-0.0315853
-0.0326687
-0.0337911
-0.0356672
-0.0385789
-0.0425679
-0.0474539
-0.0528331
-0.0580615
-0.0622499
-0.0643094
-0.0630212
-0.0573309
-0.0466918
-0.031704
-0.0148002
-0.000416188
0.00496646
2.36526e-05
-0.0385591
-0.0394885
-0.0399603
-0.040326
-0.041634
-0.0443086
-0.0484445
-0.0538583
-0.0601048
-0.0664643
-0.0719283
-0.0752204
-0.0748693
-0.0694204
-0.0578061
-0.0400012
-0.0180224
0.00328039
0.0146994
0.0135565
-0.0481738
-0.0481561
-0.0474026
-0.0462832
-0.0464111
-0.0483703
-0.0522805
-0.0579121
-0.0647383
-0.0719343
-0.0783595
-0.0825602
-0.0828312
-0.0773729
-0.0646444
-0.0439361
-0.0165427
0.0130196
0.0329318
0.0392815
-0.060234
-0.0579568
-0.0548663
-0.0512126
-0.0494263
-0.0501775
-0.0535194
-0.0590927
-0.066219
-0.0739177
-0.0808784
-0.0854524
-0.085706
-0.079519
-0.0649412
-0.0406105
-0.00697816
0.0328175
0.0647944
0.0836775
-0.0774805
-0.0694724
-0.0620866
-0.0545487
-0.0501382
-0.0493243
-0.0519036
-0.0572601
-0.0644852
-0.072384
-0.079439
-0.0837774
-0.0832176
-0.0752822
-0.0576207
-0.0282106
0.0133531
0.0666616
0.115753
0.154808
-0.108925
-0.0850393
-0.0697726
-0.0563909
-0.0485404
-0.0458804
-0.0476235
-0.0527142
-0.0599163
-0.0677761
-0.0745514
-0.0781392
-0.0761036
-0.0655418
-0.0436426
-0.00744449
0.0447437
0.114933
0.188079
0.263281
-0.168693
-0.100745
-0.0730925
-0.0522875
-0.0413096
-0.037699
-0.0394413
-0.0448646
-0.0524149
-0.060446
-0.067073
-0.070047
-0.0666867
-0.0537877
-0.0278892
0.0154105
0.0800721
0.172761
0.285855
0.445986
-0.402753
-0.13903
-0.0734585
-0.0447295
-0.0305712
-0.0266169
-0.0290849
-0.0353727
-0.0436532
-0.0522065
-0.0591231
-0.0621447
-0.0586167
-0.0452133
-0.0174502
0.0310793
0.108496
0.236657
0.427488
0.79368
)
;

boundaryField
{
    movingWall
    {
        type            zeroGradient;
    }
    fixedWalls
    {
        type            zeroGradient;
    }
    frontAndBack
    {
        type            empty;
    }
}


// ************************************************************************* //
