/*--------------------------------*- C++ -*----------------------------------*\
  =========                 |
  \\      /  F ield         | OpenFOAM: The Open Source CFD Toolbox
   \\    /   O peration     | Website:  https://openfoam.org
    \\  /    A nd           | Version:  13
     \\/     M anipulation  |
\*---------------------------------------------------------------------------*/
FoamFile
{
    format      ascii;
    class       surfaceScalarField;
    location    "27";
    object      phi_0;
}
// * * * * * * * * * * * * * * * * * * * * * * * * * * * * * * * * * * * * * //

dimensions      [0 3 -1 0 0 0 0];

internalField   nonuniform List<scalar> 
760
(
3.86104e-06
-3.8603e-06
-3.88845e-05
4.27454e-05
-0.000129333
9.04486e-05
-0.000252008
0.000122674
-0.000391399
0.000139389
-0.000534457
0.000143057
-0.00066966
0.000135203
-0.000785691
0.000116032
-0.000870883
8.51941e-05
-0.000913845
4.29644e-05
-0.000905257
-8.58637e-06
-0.000840499
-6.47575e-05
-0.000722353
-0.000118146
-0.000562867
-0.000159486
-0.000383261
-0.000179606
-0.000211098
-0.000172162
-7.46675e-05
-0.00013643
4.5891e-06
-7.92574e-05
2.13189e-05
-1.67311e-05
2.13181e-05
-4.62589e-05
4.23986e-05
-0.00020406
0.000200546
-0.000460619
0.000347006
-0.000784158
0.000446213
-0.00114135
0.000496583
-0.00150158
0.000503278
-0.00183627
0.0004699
-0.00211757
0.000397331
-0.0023181
0.000285737
-0.00241293
0.000137794
-0.00238331
-3.82033e-05
-0.00222167
-0.000226393
-0.00193651
-0.000403308
-0.00155537
-0.000540628
-0.00112427
-0.000610702
-0.000702033
-0.000594399
-0.000349076
-0.000489389
-0.000112075
-0.00031626
-7.11319e-06
-0.000121696
1.42041e-05
-0.000108447
0.000150846
-0.000393233
0.000485332
-0.000809637
0.00076341
-0.00131014
0.00094671
-0.00184921
0.00103566
-0.00238472
0.00103878
-0.0028767
0.000961889
-0.00328625
0.000806887
-0.00357591
0.000575405
-0.00371239
0.00027427
-0.00367121
-7.93794e-05
-0.00344262
-0.00045499
-0.0030373
-0.000808627
-0.00249039
-0.00108753
-0.00186158
-0.00123952
-0.00122914
-0.00122683
-0.000676698
-0.00104183
-0.000273588
-0.000719373
-5.36892e-05
-0.000341597
-3.94852e-05
-0.000167463
0.000318309
-0.000574631
0.000892499
-0.00114193
0.00133072
-0.00180371
0.00160848
-0.00250375
0.0017357
-0.003192
0.00172703
-0.00382147
0.00159136
-0.00434644
0.00133186
-0.00472286
0.000951821
-0.00491106
0.000462466
-0.00488059
-0.000109853
-0.00461639
-0.000719185
-0.00412564
-0.00129938
-0.00344362
-0.00176955
-0.00263661
-0.00204652
-0.0017983
-0.00206515
-0.00103661
-0.00180352
-0.000450513
-0.00130547
-0.00010263
-0.00068948
-0.000142115
-0.000220108
0.000538418
-0.000738267
0.00141066
-0.00144283
0.00203528
-0.00225046
0.00241612
-0.00309565
0.00258088
-0.00392309
0.00255447
-0.00468204
0.00235031
-0.00532316
0.00197299
-0.00579801
0.00142667
-0.00606105
0.000725497
-0.00607392
-9.6981e-05
-0.00581163
-0.000981473
-0.00527089
-0.00184011
-0.00447915
-0.00256129
-0.00350245
-0.00302322
-0.00244733
-0.00312027
-0.00145045
-0.00280039
-0.000651747
-0.00210417
-0.000155942
-0.00118529
-0.000298058
-0.000264922
0.000803341
-0.00087855
0.00202429
-0.00170222
0.00285895
-0.00263749
0.00335138
-0.00361162
0.00355501
-0.00456653
0.00350938
-0.00545059
0.00323438
-0.00621355
0.00273594
-0.00680442
0.00201754
-0.00717204
0.00109311
-0.00726833
-6.79889e-07
-0.00705358
-0.00119622
-0.00650688
-0.00238681
-0.00563857
-0.0034296
-0.0045053
-0.00415649
-0.00322108
-0.00440449
-0.00195423
-0.00406724
-0.000899046
-0.00315936
-0.000221146
-0.00186319
-0.000519206
-0.000300327
0.00110367
-0.000990072
0.00271403
-0.0019098
0.00377867
-0.00294948
0.00439106
-0.00403169
0.00463721
-0.00509807
0.00457576
-0.00609884
0.00423514
-0.00698554
0.00362265
-0.00770701
0.002739
-0.00820778
0.00159389
-0.00842908
0.000220619
-0.00831437
-0.00131093
-0.0078183
-0.00288288
-0.0069241
-0.00432381
-0.00566617
-0.00541442
-0.00415414
-0.00591652
-0.0025845
-0.00563688
-0.00121811
-0.00452576
-0.000307661
-0.00277364
-0.000826866
-0.000324616
0.00142829
-0.00106726
0.00345667
-0.00205451
0.00476592
-0.00316848
0.00550503
-0.00432955
0.00579829
-0.00548149
0.0057277
-0.00657903
0.00533268
-0.00757864
0.00462226
-0.00843222
0.00359257
-0.00908308
0.00224475
-0.00946464
0.000602173
-0.00950301
-0.00127256
-0.00912561
-0.00326029
-0.00827931
-0.00517011
-0.00696021
-0.00673352
-0.00525306
-0.00762367
-0.00336696
-0.00752298
-0.00163382
-0.00625889
-0.000425878
-0.00398158
-0.00125274
-0.000336571
0.00176486
-0.00110575
0.00422585
-0.00212663
0.0057868
-0.00327668
0.00665508
-0.00447625
0.00699786
-0.00567333
0.00692478
-0.00682981
0.00648916
-0.00791055
0.005703
-0.00887493
0.00455695
-0.00967049
0.0030403
-0.0102285
0.00116022
-0.0104632
-0.00103791
-0.0102763
-0.00344714
-0.00957344
-0.005873
-0.00829617
-0.00801079
-0.00647622
-0.00944362
-0.00430283
-0.00969636
-0.00216531
-0.00839642
-0.000586843
-0.00556004
-0.00183959
-0.000336534
0.00210139
-0.00110498
0.0049943
-0.00212177
0.00680359
-0.00326184
0.00779516
-0.00444722
0.00818324
-0.00563203
0.00810959
-0.00678788
0.00764501
-0.00789162
0.00680674
-0.00891537
0.0055807
-0.00981804
0.00394297
-0.010538
0.00188021
-0.0109876
-0.000588325
-0.0110521
-0.00338263
-0.0105982
-0.00632691
-0.00950269
-0.0091063
-0.00771369
-0.0112326
-0.00535129
-0.0120588
-0.00281818
-0.0109295
-0.000801712
-0.00757651
-0.0026413
-0.00032789
0.00242928
-0.00107173
0.00573814
-0.00204614
0.00777799
-0.00312429
0.00887332
-0.00423151
0.00929045
-0.0053302
0.00920828
-0.00640432
0.00871912
-0.00744622
0.00784864
-0.0084459
0.00658038
-0.00938133
0.00487841
-0.0102089
0.00270778
-0.010853
5.58094e-05
-0.0111986
-0.00303702
-0.0110868
-0.00643877
-0.0103315
-0.00986158
-0.00877493
-0.0127892
-0.00640991
-0.0144238
-0.00357187
-0.0137676
-0.00108009
-0.0100683
-0.00372139
-0.00031904
0.00274832
-0.00102431
0.00644341
-0.00192244
0.00867612
-0.00288421
0.00983509
-0.00384097
0.0102472
-0.00476692
0.0101342
-0.00566151
0.00961371
-0.00653576
0.00872289
-0.00740159
0.00744621
-0.00826224
0.00573906
-0.00910179
0.00354732
-0.00987259
0.000826617
-0.0104783
-0.00243134
-0.0107594
-0.00615765
-0.010487
-0.010134
-0.00939536
-0.0138809
-0.00730087
-0.0165183
-0.00436239
-0.016706
-0.00142589
-0.0130048
-0.00514728
-0.0003262
0.00307452
-0.000997468
0.00711468
-0.00179504
0.0094737
-0.00258646
0.0106265
-0.00331538
0.0109761
-0.00397431
0.0107932
-0.00458276
0.0102222
-0.00517315
0.00931328
-0.0057814
0.00805446
-0.00643895
0.00639661
-0.00716346
0.00427183
-0.00794575
0.00160891
-0.00872983
-0.00164726
-0.00938598
-0.00550151
-0.00968077
-0.00983916
-0.00926932
-0.0142923
-0.00777369
-0.0180139
-0.005065
-0.0194147
-0.00182898
-0.0162408
-0.00697626
-0.000377918
0.00345244
-0.00104785
0.00778461
-0.0017324
0.0101582
-0.00229891
0.011193
-0.00271729
0.0113945
-0.00301013
0.011086
-0.00322368
0.0104357
-0.00341423
0.00950383
-0.00364147
0.0082817
-0.00396371
0.00671885
-0.00443197
0.00474009
-0.00507985
0.00225679
-0.00590516
-0.000821957
-0.00683799
-0.00456867
-0.0076907
-0.00898645
-0.00810075
-0.0138822
-0.00752872
-0.0185859
-0.00548411
-0.0214594
-0.00225085
-0.0194741
-0.00922711
-0.000521785
0.00397422
-0.00125756
0.00852039
-0.00181965
0.0107203
-0.00209286
0.0114662
-0.00210227
0.0114039
-0.00191967
0.0109034
-0.00162691
0.010143
-0.00130613
0.00918305
-0.00103839
0.00801396
-0.000904014
0.00658447
-0.000981532
0.00481761
-0.00134316
0.00261841
-0.00204293
-0.000122195
-0.00308931
-0.0035223
-0.00438833
-0.00768743
-0.00564387
-0.0126267
-0.00624718
-0.0179826
-0.00535008
-0.0223564
-0.00260176
-0.0222224
-0.0118289
-0.00082647
0.00480069
-0.00172056
0.00941448
-0.00211286
0.0111126
-0.00196716
0.0113205
-0.0014209
0.0108577
-0.000622298
0.0101048
0.000302309
0.00921835
0.00124527
0.00824009
0.00210912
0.00715011
0.00279932
0.00589427
0.00321932
0.00439762
0.00326871
0.00256902
0.00284647
0.00030005
0.00186621
-0.00254203
0.000301479
-0.00612271
-0.00170001
-0.0106252
-0.00360285
-0.0160798
-0.00431278
-0.0216465
-0.0027058
-0.0238294
-0.0145347
-0.00135827
0.00615896
-0.00244994
0.0105061
-0.00244542
0.0111081
-0.00158689
0.010462
-0.000226346
0.00949713
0.00138792
0.00849054
0.00308848
0.00751778
0.00475283
0.00657574
0.00627985
0.00562308
0.00757371
0.00460042
0.00853305
0.00343828
0.00904394
0.00205813
0.00897548
0.000368509
0.00818236
-0.00174891
0.00652468
-0.00446502
0.00395421
-0.00805474
0.000769372
-0.012895
-0.00193174
-0.0189454
-0.0022733
-0.0234878
-0.016808
-0.00213677
0.00829573
-0.00293443
0.0113038
-0.00171841
0.00989209
0.000479949
0.00826363
0.00303575
0.00694133
0.0056613
0.00586499
0.00820578
0.0049733
0.0105741
0.0042074
0.0126929
0.00350428
0.0144887
0.00280464
0.0158752
0.00205179
0.0167446
0.00118875
0.0169585
0.000154604
0.0163432
-0.00113361
0.0146812
-0.00280305
0.0117365
-0.00510998
0.00741854
-0.00857706
0.00241703
-0.0139439
-0.000897694
-0.0201731
-0.0177057
-0.00248309
0.0107788
-8.42567e-06
0.00882914
0.00417506
0.00570861
0.00831208
0.00412661
0.0120895
0.00316395
0.0154787
0.00247578
0.0184829
0.00196902
0.0211101
0.00158022
0.0233583
0.00125611
0.0252061
0.000956808
0.0266071
0.000650841
0.0274827
0.000313181
0.0277174
-8.01296e-05
0.0271498
-0.00056603
0.02554
-0.00119326
0.0225256
-0.00209556
0.0176033
-0.00365482
0.0103902
-0.00673077
0.00246815
-0.012251
-0.0152375
0.0107788
0.019608
0.0253166
0.0294432
0.0326071
0.0350829
0.0370519
0.0386321
0.0398883
0.0408451
0.0414959
0.0418091
0.041729
0.0411629
0.0399697
0.0378741
0.0342193
0.0274885
0.0152375
)
;

boundaryField
{
    movingWall
    {
        type            calculated;
        value           uniform 0;
    }
    fixedWalls
    {
        type            calculated;
        value           uniform 0;
    }
    frontAndBack
    {
        type            empty;
    }
}


// ************************************************************************* //
