/*--------------------------------*- C++ -*----------------------------------*\
  =========                 |
  \\      /  F ield         | OpenFOAM: The Open Source CFD Toolbox
   \\    /   O peration     | Website:  https://openfoam.org
    \\  /    A nd           | Version:  13
     \\/     M anipulation  |
\*---------------------------------------------------------------------------*/
FoamFile
{
    format      ascii;
    class       volVectorField;
    location    "27";
    object      U_0;
}
// * * * * * * * * * * * * * * * * * * * * * * * * * * * * * * * * * * * * * //

dimensions      [0 1 -1 0 0 0 0];

internalField   nonuniform List<vector> 
400
(
(0.000170625 -0.000174136 0)
(-0.000152927 3.92288e-05 0)
(-0.00151777 0.000270938 0)
(-0.00371015 0.000418569 0)
(-0.00639349 0.000496069 0)
(-0.00927424 0.000524273 0)
(-0.0121093 0.000512961 0)
(-0.014673 0.000461588 0)
(-0.0167348 0.000364161 0)
(-0.0180586 0.000215917 0)
(-0.0184286 2.02224e-05 0)
(-0.0176953 -0.000206145 0)
(-0.0158325 -0.000430679 0)
(-0.0129857 -0.000608766 0)
(-0.00949396 -0.000693543 0)
(-0.00586147 -0.00065076 0)
(-0.00267354 -0.000473222 0)
(-0.000458541 -0.000189339 0)
(0.000495408 0.000122528 0)
(0.00029568 0.000288918 0)
(-5.44481e-05 0.000151398 0)
(-0.00202455 0.00189022 0)
(-0.00625035 0.00366043 0)
(-0.0122111 0.00488221 0)
(-0.0191767 0.00552256 0)
(-0.0264954 0.00565585 0)
(-0.0335814 0.00533316 0)
(-0.0398736 0.00456328 0)
(-0.0448148 0.00333857 0)
(-0.0478682 0.00167773 0)
(-0.0485772 -0.000331902 0)
(-0.0466579 -0.00250636 0)
(-0.0421035 -0.00456275 0)
(-0.0352701 -0.00615289 0)
(-0.0269066 -0.00693517 0)
(-0.0180964 -0.00667509 0)
(-0.010089 -0.00534868 0)
(-0.0040278 -0.00321818 0)
(-0.000612411 -0.000887394 0)
(0.000205191 0.000543375 0)
(-0.00034945 0.00168523 0)
(-0.00433742 0.00628327 0)
(-0.0114823 0.0103579 0)
(-0.0208922 0.0131111 0)
(-0.0315155 0.014496 0)
(-0.0424683 0.0146369 0)
(-0.0529398 0.0136242 0)
(-0.0621435 0.0114839 0)
(-0.069307 0.00823071 0)
(-0.0737044 0.00395401 0)
(-0.0747339 -0.00110071 0)
(-0.0720276 -0.00648129 0)
(-0.0655751 -0.0115318 0)
(-0.0558268 -0.0154654 0)
(-0.0437425 -0.0175147 0)
(-0.0307408 -0.0171451 0)
(-0.0185105 -0.0142836 0)
(-0.00868008 -0.00949296 0)
(-0.00241678 -0.00404956 0)
(2.12898e-05 -3.98286e-05 0)
(-0.000616151 0.00445976 0)
(-0.00656431 0.0132444 0)
(-0.0165076 0.0202595 0)
(-0.0291168 0.0248194 0)
(-0.0430165 0.0269849 0)
(-0.0571483 0.0269691 0)
(-0.0705602 0.024912 0)
(-0.0823289 0.0208634 0)
(-0.091547 0.0148735 0)
(-0.0973585 0.00712563 0)
(-0.099037 -0.00194291 0)
(-0.0961 -0.0115659 0)
(-0.0884427 -0.0206491 0)
(-0.0764717 -0.0278747 0)
(-0.0612014 -0.0319256 0)
(-0.0442612 -0.0318254 0)
(-0.0277408 -0.0273342 0)
(-0.0138364 -0.0192743 0)
(-0.00437793 -0.00964692 0)
(-0.000136975 -0.00157568 0)
(-0.000845886 0.00836357 0)
(-0.00856155 0.0225604 0)
(-0.0210556 0.0330589 0)
(-0.0365693 0.0396007 0)
(-0.0534219 0.0425201 0)
(-0.070423 0.0421908 0)
(-0.0865427 0.038828 0)
(-0.100789 0.032509 0)
(-0.112178 0.023315 0)
(-0.119754 0.0115107 0)
(-0.122654 -0.00229078 0)
(-0.120215 -0.0170226 0)
(-0.112118 -0.0311402 0)
(-0.0985698 -0.0427318 0)
(-0.0804786 -0.0497902 0)
(-0.0595766 -0.0506817 0)
(-0.0383633 -0.0447595 0)
(-0.019769 -0.0329405 0)
(-0.00656911 -0.0179517 0)
(-0.000281767 -0.00411688 0)
(-0.00103651 0.0132484 0)
(-0.0102625 0.0339538 0)
(-0.0249635 0.0484342 0)
(-0.0430081 0.0571229 0)
(-0.0624575 0.0607937 0)
(-0.0820348 0.0600695 0)
(-0.100687 0.0552744 0)
(-0.117413 0.046515 0)
(-0.1312 0.0338779 0)
(-0.141017 0.0176625 0)
(-0.145852 -0.00140771 0)
(-0.144795 -0.022027 0)
(-0.137194 -0.0422411 0)
(-0.122883 -0.0595041 0)
(-0.102471 -0.0709573 0)
(-0.0776273 -0.0740052 0)
(-0.051216 -0.0671999 0)
(-0.0270661 -0.0512256 0)
(-0.00927214 -0.0294838 0)
(-0.000455074 -0.00781084 0)
(-0.00118197 0.0189416 0)
(-0.0116042 0.0470777 0)
(-0.0280758 0.0659807 0)
(-0.0481748 0.076987 0)
(-0.0697678 0.0814599 0)
(-0.0915396 0.0803609 0)
(-0.112466 0.0741633 0)
(-0.131594 0.0630006 0)
(-0.147937 0.0469263 0)
(-0.160426 0.0261997 0)
(-0.167906 0.00154973 0)
(-0.169193 -0.0256 0)
(-0.163212 -0.0529768 0)
(-0.149261 -0.0774155 0)
(-0.127412 -0.0950636 0)
(-0.0990035 -0.102 0)
(-0.067069 -0.0954054 0)
(-0.0363984 -0.0751492 0)
(-0.0128485 -0.0450897 0)
(-0.00070736 -0.0129834 0)
(-0.00127458 0.0252375 0)
(-0.0125218 0.0615069 0)
(-0.0302337 0.0851861 0)
(-0.0517857 0.0986695 0)
(-0.0749164 0.104036 0)
(-0.0983188 0.102672 0)
(-0.121048 0.095245 0)
(-0.142256 0.0819166 0)
(-0.161047 0.0626647 0)
(-0.176382 0.0376199 0)
(-0.187023 0.00738484 0)
(-0.191541 -0.0266669 0)
(-0.188415 -0.0621081 0)
(-0.176292 -0.0952635 0)
(-0.15446 -0.121237 0)
(-0.123539 -0.134437 0)
(-0.0863173 -0.129952 0)
(-0.0483615 -0.105885 0)
(-0.0176966 -0.0659437 0)
(-0.00110071 -0.0201645 0)
(-0.00130973 0.0318983 0)
(-0.0129697 0.0767413 0)
(-0.0313083 0.105425 0)
(-0.053579 0.121492 0)
(-0.0774505 0.127837 0)
(-0.101664 0.126359 0)
(-0.1254 0.11797 0)
(-0.147975 0.102873 0)
(-0.168662 0.0809391 0)
(-0.186551 0.0520888 0)
(-0.200438 0.0166592 0)
(-0.208764 -0.0242177 0)
(-0.209644 -0.0682054 0)
(-0.20106 -0.11136 0)
(-0.181316 -0.147868 0)
(-0.149875 -0.170283 0)
(-0.108616 -0.170835 0)
(-0.0632915 -0.14449 0)
(-0.0242246 -0.0934758 0)
(-0.0017172 -0.0301036 0)
(-0.00129305 0.0386727 0)
(-0.0129583 0.0922333 0)
(-0.0312671 0.125974 0)
(-0.0534072 0.14461 0)
(-0.0770225 0.151939 0)
(-0.100936 0.150455 0)
(-0.124494 0.141381 0)
(-0.147239 0.124996 0)
(-0.1687 0.10106 0)
(-0.188218 0.0692292 0)
(-0.204787 0.0294619 0)
(-0.216919 -0.0175498 0)
(-0.22257 -0.0698557 0)
(-0.219192 -0.123627 0)
(-0.204059 -0.172516 0)
(-0.175096 -0.207348 0)
(-0.132454 -0.216942 0)
(-0.0809878 -0.191439 0)
(-0.0327981 -0.129192 0)
(-0.0026701 -0.0437808 0)
(-0.00125042 0.0453407 0)
(-0.0126064 0.10745 0)
(-0.030262 0.146056 0)
(-0.0513603 0.167034 0)
(-0.0735503 0.17517 0)
(-0.0957742 0.173646 0)
(-0.117591 0.164075 0)
(-0.138827 0.146866 0)
(-0.15935 0.121699 0)
(-0.178877 0.0879631 0)
(-0.196786 0.0451765 0)
(-0.211912 -0.0065655 0)
(-0.222362 -0.0660071 0)
(-0.225374 -0.129918 0)
(-0.217387 -0.192064 0)
(-0.194636 -0.24214 0)
(-0.154786 -0.265532 0)
(-0.100326 -0.245961 0)
(-0.0436125 -0.174315 0)
(-0.00411425 -0.0624015 0)
(-0.00124176 0.0517918 0)
(-0.0122067 0.121983 0)
(-0.0287317 0.164927 0)
(-0.047894 0.187687 0)
(-0.0673765 0.196158 0)
(-0.0863073 0.194317 0)
(-0.104525 0.184247 0)
(-0.122199 0.166558 0)
(-0.139604 0.140912 0)
(-0.156931 0.106478 0)
(-0.174093 0.0623459 0)
(-0.1905 0.00794169 0)
(-0.204764 -0.0564015 0)
(-0.214368 -0.128554 0)
(-0.2154 -0.20323 0)
(-0.202662 -0.270097 0)
(-0.170937 -0.311944 0)
(-0.118844 -0.305273 0)
(-0.0564414 -0.229172 0)
(-0.0062489 -0.0873395 0)
(-0.00138322 0.0581519 0)
(-0.0123121 0.135698 0)
(-0.0275064 0.181981 0)
(-0.0439304 0.205474 0)
(-0.059365 0.213397 0)
(-0.0732631 0.210642 0)
(-0.0858571 0.199825 0)
(-0.09773 0.181813 0)
(-0.109605 0.156316 0)
(-0.122189 0.12237 0)
(-0.136011 0.0787188 0)
(-0.151209 0.0241653 0)
(-0.16721 -0.0419561 0)
(-0.182261 -0.118977 0)
(-0.192821 -0.203402 0)
(-0.193006 -0.286348 0)
(-0.174986 -0.349862 0)
(-0.132511 -0.364 0)
(-0.0702382 -0.292275 0)
(-0.00930046 -0.119952 0)
(-0.00188815 0.0649808 0)
(-0.0138563 0.148932 0)
(-0.0278959 0.196852 0)
(-0.0408656 0.219331 0)
(-0.0508285 0.225306 0)
(-0.0578387 0.220693 0)
(-0.0627116 0.20864 0)
(-0.0665312 0.190267 0)
(-0.0704849 0.165372 0)
(-0.0757721 0.132941 0)
(-0.0835104 0.0915049 0)
(-0.0945882 0.0394022 0)
(-0.1094 -0.0249117 0)
(-0.127373 -0.102289 0)
(-0.146143 -0.191594 0)
(-0.160328 -0.286914 0)
(-0.160602 -0.372277 0)
(-0.135857 -0.414187 0)
(-0.0826356 -0.359243 0)
(-0.0134355 -0.161112 0)
(-0.00312644 0.0735654 0)
(-0.0183002 0.162691 0)
(-0.0316707 0.209413 0)
(-0.0403016 0.228145 0)
(-0.0430303 0.230172 0)
(-0.0410167 0.222449 0)
(-0.0359379 0.208514 0)
(-0.0294764 0.189633 0)
(-0.0232701 0.165651 0)
(-0.0189312 0.135551 0)
(-0.0180499 0.0977846 0)
(-0.0221492 0.0504522 0)
(-0.0325427 -0.00855458 0)
(-0.0499952 -0.0813047 0)
(-0.0739443 -0.169052 0)
(-0.100861 -0.269926 0)
(-0.121849 -0.372985 0)
(-0.122342 -0.44621 0)
(-0.0894229 -0.42211 0)
(-0.0184497 -0.210397 0)
(-0.00561103 0.0864118 0)
(-0.0276155 0.178738 0)
(-0.0405017 0.219411 0)
(-0.0428115 0.230294 0)
(-0.0354121 0.225775 0)
(-0.021423 0.213544 0)
(-0.00371112 0.197134 0)
(0.0153835 0.177678 0)
(0.0338398 0.154936 0)
(0.0497681 0.127874 0)
(0.0612818 0.0949594 0)
(0.0664294 0.0542866 0)
(0.0631944 0.0035862 0)
(0.0496283 -0.0598299 0)
(0.0243321 -0.138981 0)
(-0.012038 -0.236141 0)
(-0.0533656 -0.347893 0)
(-0.0845363 -0.450241 0)
(-0.0840607 -0.469732 0)
(-0.0231371 -0.265694 0)
(-0.00989945 0.108805 0)
(-0.0433256 0.199291 0)
(-0.0530558 0.224998 0)
(-0.0432215 0.222169 0)
(-0.0199083 0.208266 0)
(0.0106861 0.190517 0)
(0.0444382 0.171593 0)
(0.0785461 0.152018 0)
(0.110857 0.131235 0)
(0.139462 0.108128 0)
(0.162439 0.0812475 0)
(0.177678 0.0488707 0)
(0.182773 0.00894048 0)
(0.174978 -0.0411739 0)
(0.151317 -0.105151 0)
(0.10941 -0.188235 0)
(0.0505965 -0.295308 0)
(-0.0137544 -0.417103 0)
(-0.0573985 -0.488235 0)
(-0.0247311 -0.323387 0)
(-0.0177626 0.151876 0)
(-0.0613919 0.223688 0)
(-0.0526575 0.217424 0)
(-0.0151806 0.194411 0)
(0.0341018 0.17034 0)
(0.0868078 0.148294 0)
(0.139014 0.128663 0)
(0.188478 0.110833 0)
(0.233633 0.0937311 0)
(0.273084 0.0761428 0)
(0.30529 0.0567909 0)
(0.328362 0.0343016 0)
(0.339894 0.00711835 0)
(0.33685 -0.0267703 0)
(0.315382 -0.0705221 0)
(0.270852 -0.130044 0)
(0.199033 -0.216188 0)
(0.102179 -0.338152 0)
(0.00386972 -0.456589 0)
(-0.0160812 -0.369023 0)
(-0.0241454 0.208442 0)
(-0.0377882 0.230536 0)
(0.0373409 0.176557 0)
(0.12493 0.136688 0)
(0.205384 0.10875 0)
(0.277183 0.0878363 0)
(0.341047 0.0717504 0)
(0.397324 0.0588905 0)
(0.44611 0.0478558 0)
(0.487181 0.0375043 0)
(0.519915 0.0268534 0)
(0.543057 0.0150263 0)
(0.55468 0.00112686 0)
(0.552085 -0.0159295 0)
(0.531406 -0.037979 0)
(0.487122 -0.0689437 0)
(0.41074 -0.119018 0)
(0.29059 -0.209349 0)
(0.132962 -0.3383 0)
(0.0386316 -0.340301 0)
(0.241931 0.109187 0)
(0.313616 0.0971949 0)
(0.44455 0.0570029 0)
(0.549818 0.0350998 0)
(0.624096 0.023698 0)
(0.679414 0.0166531 0)
(0.723053 0.0119283 0)
(0.758162 0.00866354 0)
(0.786325 0.00625643 0)
(0.808357 0.00426603 0)
(0.824438 0.00238683 0)
(0.834181 0.000408854 0)
(0.836698 -0.00184663 0)
(0.830538 -0.00453994 0)
(0.813357 -0.0079979 0)
(0.781224 -0.012893 0)
(0.725815 -0.0212797 0)
(0.62995 -0.0381534 0)
(0.459285 -0.0856293 0)
(0.304881 -0.12571 0)
)
;

boundaryField
{
    movingWall
    {
        type            calculated;
        value           uniform (1 0 0);
    }
    fixedWalls
    {
        type            calculated;
        value           uniform (0 0 0);
    }
    frontAndBack
    {
        type            empty;
    }
}


// ************************************************************************* //
