/*--------------------------------*- C++ -*----------------------------------*\
  =========                 |
  \\      /  F ield         | OpenFOAM: The Open Source CFD Toolbox
   \\    /   O peration     | Website:  https://openfoam.org
    \\  /    A nd           | Version:  13
     \\/     M anipulation  |
\*---------------------------------------------------------------------------*/
FoamFile
{
    format      ascii;
    class       volScalarField;
    location    "3";
    object      p;
}
// * * * * * * * * * * * * * * * * * * * * * * * * * * * * * * * * * * * * * //

dimensions      [0 2 -2 0 0 0 0];

internalField   nonuniform List<scalar> 
400
(
-4.32708e-10
-0.000306427
-0.000490247
-0.000403524
3.76883e-06
0.000725502
0.00173493
0.00299353
0.00445352
0.00605822
0.00774229
0.0094324
0.011049
0.0125094
0.0137325
0.0146456
0.0151946
0.015361
0.0152018
0.0148928
0.000299521
-2.4051e-05
-0.000154273
-4.81038e-05
0.000344074
0.00102437
0.00197405
0.00316091
0.00454192
0.00606413
0.00766528
0.00927493
0.0108165
0.0122109
0.0133812
0.0142608
0.0148031
0.0149973
0.0148999
0.014581
0.000486546
5.86335e-05
-9.38242e-05
8.23411e-07
0.00037869
0.00103879
0.00196404
0.00312515
0.00448198
0.00598391
0.00757026
0.0091713
0.0107104
0.0121074
0.0132842
0.0141716
0.0147205
0.0149143
0.014797
0.0143738
0.000394383
-0.000130595
-0.000322763
-0.00024834
0.000120657
0.000778792
0.00170854
0.00288199
0.00426081
0.00579574
0.00742646
0.00908217
0.0106835
0.0121456
0.0133838
0.0143213
0.0148997
0.0150935
0.0149405
0.0144176
-6.03742e-05
-0.000676308
-0.000911457
-0.000855298
-0.000482877
0.000196711
0.00116477
0.00239385
0.00384653
0.00547402
0.00721512
0.00899623
0.0107326
0.0123311
0.0136956
0.0147357
0.0153787
0.0155877
0.0153993
0.0147789
-0.000926327
-0.00163669
-0.00191478
-0.00186979
-0.00147764
-0.000750617
0.000291224
0.00162052
0.00320047
0.00498225
0.00690317
0.00888555
0.0108372
0.0126531
0.0142209
0.0154299
0.0161868
0.0164385
0.016221
0.015494
-0.00225532
-0.00307287
-0.00339461
-0.00335182
-0.00292148
-0.00211967
-0.000967986
0.000506403
0.00226752
0.00426687
0.00644033
0.00870583
0.0109624
0.0130906
0.0149561
0.0164207
0.0173605
0.0176971
0.0174621
0.0166092
-0.00411575
-0.00506127
-0.00542885
-0.00537832
-0.00488996
-0.00398526
-0.00268773
-0.00102388
0.000972005
0.00325285
0.00575437
0.00839104
0.0110536
0.0136061
0.015888
0.0177238
0.0189452
0.0194327
0.0192021
0.0181963
-0.00660148
-0.0077029
-0.00811905
-0.00804899
-0.00748073
-0.00644401
-0.00496475
-0.00306806
-0.000785073
0.00184051
0.00474676
0.00784751
0.011028
0.0141371
0.0169846
0.0193476
0.0209947
0.021739
0.021557
0.0203692
-0.0098415
-0.011133
-0.0115985
-0.0114921
-0.0108175
-0.0096167
-0.00791877
-0.00574643
-0.00312594
-9.49635e-05
0.00329084
0.0069496
0.0107682
0.0145858
0.0181841
0.0212846
0.0235692
0.0247439
0.0247002
0.0233096
-0.0140143
-0.0155344
-0.0160421
-0.0158711
-0.015053
-0.0136484
-0.01169
-0.00919721
-0.00619004
-0.00269731
0.00123687
0.00554183
0.0101192
0.0148118
0.0193838
0.0235006
0.0267332
0.0286229
0.0288937
0.0273136
-0.019372
-0.0211566
-0.0216797
-0.0213906
-0.0203696
-0.0187032
-0.0164287
-0.0135619
-0.0101162
-0.00610974
-0.00156873
0.00345581
0.00890084
0.0146369
0.0204372
0.0259283
0.0305556
0.0336218
0.0345436
0.0328784
-0.026283
-0.0283469
-0.0288125
-0.0282998
-0.0269709
-0.0249465
-0.022269
-0.0189519
-0.0150041
-0.0104334
-0.00524412
0.000553381
0.00694807
0.0138778
0.0211756
0.0284794
0.0351246
0.0400991
0.0422926
0.0408606
-0.0353089
-0.0375959
-0.037829
-0.0368824
-0.0350513
-0.0324986
-0.0292711
-0.0253833
-0.0208438
-0.0156508
-0.00978127
-0.00318972
0.00419374
0.0124248
0.0214757
0.0310966
0.0405946
0.0486016
0.053173
0.0527582
-0.0473464
-0.0496011
-0.0492011
-0.0474012
-0.0447082
-0.0413287
-0.0373093
-0.0326664
-0.0274098
-0.0215249
-0.0149535
-0.00757344
0.000791574
0.0103736
0.0213886
0.033866
0.0472803
0.0599856
0.0688411
0.0711841
-0.0638973
-0.0653367
-0.0633978
-0.0599174
-0.0557226
-0.0510372
-0.0458795
-0.0402479
-0.0341342
-0.0274921
-0.0202089
-0.0120728
-0.00276889
0.00816147
0.0212899
0.0371518
0.0557565
0.0755329
0.0918712
0.10058
-0.08762
-0.0860082
-0.0804985
-0.0737901
-0.0670907
-0.0604905
-0.053849
-0.0470591
-0.0400318
-0.0326422
-0.0246934
-0.0158671
-0.00568984
0.00655473
0.0218784
0.0415702
0.0667382
0.0967867
0.125906
0.148202
-0.124992
-0.112943
-0.0991776
-0.0866853
-0.0763544
-0.0674893
-0.0593625
-0.0515702
-0.043845
-0.0359231
-0.0275001
-0.0181469
-0.00723136
0.00622406
0.0236861
0.0473815
0.0802039
0.124377
0.175152
0.226726
-0.196689
-0.145594
-0.114461
-0.0936722
-0.0797998
-0.0693564
-0.0605718
-0.0525309
-0.0447178
-0.036754
-0.0282583
-0.018731
-0.00743066
0.0068117
0.0258868
0.0529462
0.0931225
0.154371
0.240874
0.365109
-0.369583
-0.186535
-0.118196
-0.0901829
-0.0751089
-0.0650437
-0.0570869
-0.0499283
-0.0429089
-0.0356193
-0.0276876
-0.018634
-0.00772558
0.00624101
0.0253333
0.0534697
0.0984974
0.180042
0.333604
0.629368
)
;

boundaryField
{
    movingWall
    {
        type            zeroGradient;
    }
    fixedWalls
    {
        type            zeroGradient;
    }
    frontAndBack
    {
        type            empty;
    }
}


// ************************************************************************* //
