/*--------------------------------*- C++ -*----------------------------------*\
  =========                 |
  \\      /  F ield         | OpenFOAM: The Open Source CFD Toolbox
   \\    /   O peration     | Website:  https://openfoam.org
    \\  /    A nd           | Version:  13
     \\/     M anipulation  |
\*---------------------------------------------------------------------------*/
FoamFile
{
    format      ascii;
    class       volVectorField;
    location    "3";
    object      U;
}
// * * * * * * * * * * * * * * * * * * * * * * * * * * * * * * * * * * * * * //

dimensions      [0 1 -1 0 0 0 0];

internalField   nonuniform List<vector> 
400
(
(-0.00016845 0.000168308 0)
(-0.000946145 0.000455766 0)
(-0.00241703 0.000643955 0)
(-0.00422115 0.000728761 0)
(-0.00608811 0.000724178 0)
(-0.00783283 0.000661696 0)
(-0.00934932 0.000560649 0)
(-0.0105693 0.000432769 0)
(-0.0114448 0.000285359 0)
(-0.0119404 0.000123697 0)
(-0.0120306 -4.73195e-05 0)
(-0.0117007 -0.000222095 0)
(-0.0109494 -0.000393457 0)
(-0.00979279 -0.000551741 0)
(-0.00827091 -0.000683632 0)
(-0.00645871 -0.000770614 0)
(-0.00448365 -0.000787203 0)
(-0.00256311 -0.000698404 0)
(-0.00100117 -0.000489162 0)
(-0.000181324 -0.000176195 0)
(-0.000470352 0.000941123 0)
(-0.00188157 0.00184646 0)
(-0.00508936 0.00293348 0)
(-0.00890617 0.00335123 0)
(-0.0129206 0.00332321 0)
(-0.0167171 0.00302799 0)
(-0.0200486 0.00256582 0)
(-0.0227497 0.00198974 0)
(-0.0247032 0.0013292 0)
(-0.0258215 0.000604464 0)
(-0.0260412 -0.000165173 0)
(-0.0253247 -0.000956394 0)
(-0.0236669 -0.00173826 0)
(-0.0211068 -0.00246795 0)
(-0.0177446 -0.00308492 0)
(-0.013767 -0.00350112 0)
(-0.00948111 -0.00358503 0)
(-0.00538775 -0.00314159 0)
(-0.00197647 -0.00195532 0)
(-0.000498594 -0.000976044 0)
(-0.000714095 0.00246344 0)
(-0.00317771 0.00507741 0)
(-0.00803613 0.00751 0)
(-0.01346 0.00841656 0)
(-0.0190163 0.00829785 0)
(-0.0242066 0.00753539 0)
(-0.0287244 0.00635727 0)
(-0.0323595 0.00489277 0)
(-0.0349626 0.00321892 0)
(-0.0364251 0.00139065 0)
(-0.036671 -0.000540775 0)
(-0.0356585 -0.00251575 0)
(-0.0333869 -0.0044567 0)
(-0.0299101 -0.00625787 0)
(-0.0253573 -0.00777202 0)
(-0.019962 -0.00879059 0)
(-0.0140983 -0.00901469 0)
(-0.00836191 -0.00802512 0)
(-0.00327797 -0.00534166 0)
(-0.000745356 -0.00253957 0)
(-0.000899793 0.00449992 0)
(-0.00402873 0.00929516 0)
(-0.0100432 0.0131301 0)
(-0.0165997 0.0144896 0)
(-0.0232292 0.0141952 0)
(-0.0293762 0.012848 0)
(-0.034704 0.0108125 0)
(-0.0389812 0.00830015 0)
(-0.0420438 0.00543989 0)
(-0.0437714 0.00232464 0)
(-0.0440782 -0.000959855 0)
(-0.0429136 -0.00431511 0)
(-0.0402697 -0.00761305 0)
(-0.0361982 -0.0106786 0)
(-0.0308345 -0.0132679 0)
(-0.024434 -0.0150379 0)
(-0.0174148 -0.015504 0)
(-0.0104563 -0.0139972 0)
(-0.00415066 -0.00972494 0)
(-0.000940411 -0.00461887 0)
(-0.00105254 0.00691477 0)
(-0.00468912 0.0143675 0)
(-0.0116681 0.0197397 0)
(-0.0191941 0.0215441 0)
(-0.0267473 0.0209946 0)
(-0.0337159 0.0189474 0)
(-0.0397415 0.0159191 0)
(-0.0445832 0.0122104 0)
(-0.0480709 0.00800509 0)
(-0.050077 0.00343379 0)
(-0.0505048 -0.00138466 0)
(-0.0492878 -0.006314 0)
(-0.0463988 -0.0111751 0)
(-0.0418698 -0.0157185 0)
(-0.0358243 -0.0195911 0)
(-0.0285247 -0.022293 0)
(-0.0204303 -0.0231183 0)
(-0.0123208 -0.0210945 0)
(-0.00489204 -0.0150363 0)
(-0.00111685 -0.00709626 0)
(-0.00120829 0.00966802 0)
(-0.00535174 0.0201909 0)
(-0.0133123 0.0272639 0)
(-0.0218397 0.0295201 0)
(-0.030351 0.0286427 0)
(-0.0381719 0.0257882 0)
(-0.0449257 0.021647 0)
(-0.0503683 0.0166172 0)
(-0.0543302 0.0109369 0)
(-0.0566798 0.00477043 0)
(-0.0573078 -0.0017372 0)
(-0.0561241 -0.00841906 0)
(-0.0530681 -0.0150496 0)
(-0.0481332 -0.0213027 0)
(-0.0414103 -0.0267025 0)
(-0.0331532 -0.0305606 0)
(-0.0238618 -0.0318964 0)
(-0.014441 -0.0293555 0)
(-0.00573179 -0.0212654 0)
(-0.00131921 -0.00996516 0)
(-0.00139147 0.0128055 0)
(-0.00613575 0.0268353 0)
(-0.0152328 0.035802 0)
(-0.024914 0.0385203 0)
(-0.0345205 0.0372319 0)
(-0.0433086 0.0334506 0)
(-0.0508877 0.0280691 0)
(-0.0570199 0.0215921 0)
(-0.0615445 0.0143113 0)
(-0.0643315 0.00641584 0)
(-0.0652585 -0.00193525 0)
(-0.0642048 -0.0105581 0)
(-0.0610606 -0.0191922 0)
(-0.0557564 -0.0274377 0)
(-0.0483211 -0.0346811 0)
(-0.0389737 -0.0400043 0)
(-0.0282441 -0.0420755 0)
(-0.0171867 -0.0390462 0)
(-0.00684026 -0.0286274 0)
(-0.00158296 -0.0133236 0)
(-0.00162132 0.0164233 0)
(-0.00712418 0.0344693 0)
(-0.017609 0.0455484 0)
(-0.0286725 0.0487248 0)
(-0.039565 0.0469138 0)
(-0.0494685 0.0420586 0)
(-0.0579898 0.0352898 0)
(-0.0649117 0.0272309 0)
(-0.0700973 0.0182237 0)
(-0.0734284 0.00846998 0)
(-0.0747734 -0.00187689 0)
(-0.0739762 -0.0126383 0)
(-0.0708608 -0.0235411 0)
(-0.0652636 -0.0341237 0)
(-0.0571083 -0.0436254 0)
(-0.0465312 -0.0508494 0)
(-0.0340592 -0.0540082 0)
(-0.0209095 -0.0505957 0)
(-0.00838487 -0.0375102 0)
(-0.00194388 -0.017349 0)
(-0.00191688 0.0206587 0)
(-0.00839291 0.0433371 0)
(-0.0205957 0.0567659 0)
(-0.03332 0.0603604 0)
(-0.0457091 0.0578634 0)
(-0.0568717 0.0517421 0)
(-0.0664324 0.04341 0)
(-0.0742208 0.0336233 0)
(-0.0801467 0.0227687 0)
(-0.0841231 0.0110423 0)
(-0.0860196 -0.0014355 0)
(-0.0856455 -0.0145251 0)
(-0.0827438 -0.0279788 0)
(-0.0770189 -0.0413032 0)
(-0.0682283 -0.0535946 0)
(-0.0563468 -0.0633291 0)
(-0.0418245 -0.0681301 0)
(-0.0260223 -0.0645945 0)
(-0.0105798 -0.0484934 0)
(-0.00244557 -0.0223092 0)
(-0.00230186 0.0256953 0)
(-0.0100323 0.0537533 0)
(-0.0243597 0.0697705 0)
(-0.0390525 0.0736734 0)
(-0.053134 0.0702444 0)
(-0.0656513 0.0625987 0)
(-0.076284 0.0524887 0)
(-0.0849477 0.0408186 0)
(-0.0916358 0.0280117 0)
(-0.0963219 0.0142343 0)
(-0.0988975 -0.000464044 0)
(-0.0991492 -0.016028 0)
(-0.0967319 -0.0322973 0)
(-0.0911793 -0.0488037 0)
(-0.0820061 -0.064535 0)
(-0.0689069 -0.0776106 0)
(-0.0521154 -0.0849103 0)
(-0.0330469 -0.0817962 0)
(-0.0137314 -0.0624008 0)
(-0.00314574 -0.0285996 0)
(-0.00281028 0.0317801 0)
(-0.0121664 0.0661107 0)
(-0.0291026 0.0849207 0)
(-0.0460721 0.0888995 0)
(-0.0619747 0.0841649 0)
(-0.07583 0.0746426 0)
(-0.0874345 0.0624906 0)
(-0.096849 0.0487756 0)
(-0.104202 0.0339449 0)
(-0.109571 0.0181042 0)
(-0.112902 0.00118394 0)
(-0.113988 -0.0169031 0)
(-0.112408 -0.036173 0)
(-0.107497 -0.0562776 0)
(-0.0984458 -0.0761837 0)
(-0.0845118 -0.0936773 0)
(-0.0654835 -0.104752 0)
(-0.0426082 -0.103092 0)
(-0.0182774 -0.0803747 0)
(-0.00411988 -0.0368067 0)
(-0.00349479 0.0392533 0)
(-0.0149733 0.0808941 0)
(-0.035072 0.102595 0)
(-0.0545654 0.106209 0)
(-0.0722553 0.0996044 0)
(-0.0872117 0.0877235 0)
(-0.099447 0.0732047 0)
(-0.109252 0.0572855 0)
(-0.116957 0.0404169 0)
(-0.122803 0.0226077 0)
(-0.126833 0.00361961 0)
(-0.1289 -0.0168791 0)
(-0.128551 -0.0391608 0)
(-0.124919 -0.0631448 0)
(-0.11682 -0.0879442 0)
(-0.102901 -0.111141 0)
(-0.0821807 -0.127787 0)
(-0.0553057 -0.129386 0)
(-0.0248015 -0.103929 0)
(-0.00545824 -0.0477991 0)
(-0.00444022 0.0485965 0)
(-0.0187088 0.0986884 0)
(-0.0425462 0.123136 0)
(-0.0646129 0.1256 0)
(-0.0837107 0.11628 0)
(-0.0991211 0.10139 0)
(-0.111232 0.084116 0)
(-0.120679 0.0658565 0)
(-0.128072 0.0470286 0)
(-0.133877 0.0274972 0)
(-0.138314 0.00679887 0)
(-0.141345 -0.0157288 0)
(-0.14254 -0.040724 0)
(-0.140928 -0.0685566 0)
(-0.134958 -0.0987455 0)
(-0.122544 -0.128968 0)
(-0.101552 -0.153498 0)
(-0.0713349 -0.161265 0)
(-0.0339663 -0.134889 0)
(-0.00724686 -0.0628376 0)
(-0.00578717 0.0605055 0)
(-0.0237283 0.120153 0)
(-0.0517488 0.1467 0)
(-0.0759335 0.146668 0)
(-0.0953555 0.133398 0)
(-0.109835 0.11466 0)
(-0.120386 0.0942139 0)
(-0.128131 0.0735603 0)
(-0.134041 0.0530103 0)
(-0.138853 0.0322208 0)
(-0.143014 0.0104474 0)
(-0.14666 -0.0133564 0)
(-0.149497 -0.040304 0)
(-0.150596 -0.0714032 0)
(-0.148196 -0.106915 0)
(-0.139507 -0.145127 0)
(-0.120942 -0.1801 0)
(-0.0896559 -0.198262 0)
(-0.0462305 -0.17499 0)
(-0.00951097 -0.0836608 0)
(-0.00776688 0.0760019 0)
(-0.0304809 0.145922 0)
(-0.0625745 0.172904 0)
(-0.0872306 0.168132 0)
(-0.104497 0.149199 0)
(-0.115385 0.125661 0)
(-0.121896 0.101741 0)
(-0.125783 0.0788715 0)
(-0.128404 0.0571196 0)
(-0.130749 0.0358478 0)
(-0.1335 0.0139894 0)
(-0.136993 -0.00988665 0)
(-0.141172 -0.0374222 0)
(-0.145399 -0.0703882 0)
(-0.148037 -0.110126 0)
(-0.145928 -0.156238 0)
(-0.134053 -0.203706 0)
(-0.106495 -0.237555 0)
(-0.0610771 -0.224749 0)
(-0.0120571 -0.112424 0)
(-0.0107048 0.0965659 0)
(-0.0393795 0.176154 0)
(-0.073779 0.199906 0)
(-0.0945235 0.18685 0)
(-0.104506 0.1602 0)
(-0.107129 0.131177 0)
(-0.10576 0.103986 0)
(-0.102763 0.0796171 0)
(-0.0997374 0.0576674 0)
(-0.0977708 0.0371104 0)
(-0.097634 0.0165589 0)
(-0.0998271 -0.00571038 0)
(-0.104619 -0.0317972 0)
(-0.111912 -0.0641946 0)
(-0.120724 -0.105513 0)
(-0.128298 -0.157401 0)
(-0.128882 -0.217443 0)
(-0.1131 -0.272037 0)
(-0.0752633 -0.281093 0)
(-0.0139916 -0.151223 0)
(-0.0151561 0.125026 0)
(-0.0501156 0.210269 0)
(-0.0801829 0.222671 0)
(-0.0866387 0.196264 0)
(-0.0798732 0.160391 0)
(-0.0671715 0.126512 0)
(-0.053025 0.0974944 0)
(-0.0398143 0.0733225 0)
(-0.0288665 0.0528702 0)
(-0.0209509 0.034693 0)
(-0.0166313 0.017194 0)
(-0.016411 -0.00144908 0)
(-0.0208658 -0.0234943 0)
(-0.0306303 -0.0518376 0)
(-0.0460111 -0.0901698 0)
(-0.0658823 -0.14257 0)
(-0.0855484 -0.211111 0)
(-0.0929316 -0.288341 0)
(-0.0795889 -0.333886 0)
(-0.0123767 -0.201117 0)
(-0.0206672 0.167266 0)
(-0.0586409 0.242984 0)
(-0.0626009 0.22863 0)
(-0.0332377 0.184721 0)
(0.00379312 0.14194 0)
(0.0391135 0.106864 0)
(0.0695534 0.0795909 0)
(0.0944851 0.0585171 0)
(0.11384 0.0418442 0)
(0.127789 0.0279111 0)
(0.136359 0.0151753 0)
(0.139275 0.00206184 0)
(0.135781 -0.0133525 0)
(0.124479 -0.0336866 0)
(0.10334 -0.0628466 0)
(0.0703857 -0.106724 0)
(0.0258687 -0.172877 0)
(-0.018674 -0.265844 0)
(-0.0551882 -0.360757 0)
(0.00190775 -0.260262 0)
(-0.0241241 0.221376 0)
(-0.0295754 0.2474 0)
(0.055206 0.181448 0)
(0.143483 0.131026 0)
(0.215819 0.0936709 0)
(0.271363 0.0666946 0)
(0.313373 0.0476237 0)
(0.344795 0.0340285 0)
(0.367854 0.0240789 0)
(0.384013 0.016398 0)
(0.394038 0.00990669 0)
(0.397988 0.00366166 0)
(0.395087 -0.0033898 0)
(0.383447 -0.0126926 0)
(0.359527 -0.0267153 0)
(0.317722 -0.0506829 0)
(0.249512 -0.0960968 0)
(0.15602 -0.186865 0)
(0.0242972 -0.338921 0)
(0.052087 -0.297889 0)
(0.246595 0.111465 0)
(0.32134 0.108472 0)
(0.460701 0.0706725 0)
(0.560932 0.0496252 0)
(0.627265 0.0354508 0)
(0.672858 0.0254253 0)
(0.704675 0.0182556 0)
(0.727001 0.013113 0)
(0.742625 0.00938959 0)
(0.753324 0.00663975 0)
(0.760156 0.00452819 0)
(0.76361 0.00279082 0)
(0.763649 0.00119258 0)
(0.759627 -0.000509308 0)
(0.749775 -0.0026952 0)
(0.730653 -0.00586746 0)
(0.691797 -0.0125803 0)
(0.620392 -0.0242701 0)
(0.461004 -0.0692673 0)
(0.319639 -0.115637 0)
)
;

boundaryField
{
    movingWall
    {
        type            fixedValue;
        value           uniform (1 0 0);
    }
    fixedWalls
    {
        type            fixedValue;
        value           uniform (0 0 0);
    }
    frontAndBack
    {
        type            empty;
    }
}


// ************************************************************************* //
