# Selection   : all
# Cells       : 8
# Volume      : 1.000000e+00
# Time        	max(p)
0             	0.000000e+00
1             	1.800000e-02
2             	3.535260e-02
3             	3.784610e-02
4             	3.413427e-02
5             	3.349361e-02
6             	3.379730e-02
7             	3.407840e-02
8             	3.426486e-02
9             	3.440116e-02
10            	3.449935e-02
