/*--------------------------------*- C++ -*----------------------------------*\
  =========                 |
  \\      /  F ield         | OpenFOAM: The Open Source CFD Toolbox
   \\    /   O peration     | Website:  https://openfoam.org
    \\  /    A nd           | Version:  13
     \\/     M anipulation  |
\*---------------------------------------------------------------------------*/
FoamFile
{
    format      ascii;
    class       volScalarField;
    location    "46";
    object      p;
}
// * * * * * * * * * * * * * * * * * * * * * * * * * * * * * * * * * * * * * //

dimensions      [0 2 -2 0 0 0 0];

internalField   nonuniform List<scalar> 
400
(
1.97393e-06
-0.000526176
-0.00117271
-0.00167387
-0.00190967
-0.00183056
-0.00141191
-0.00064263
0.000468292
0.00187665
0.00348795
0.00515112
0.00666954
0.00783285
0.00846733
0.00849264
0.0079651
0.00709154
0.00620488
0.00565092
0.000541227
-6.81824e-06
-0.00057826
-0.000978757
-0.00115621
-0.00108368
-0.000739872
-0.000109526
0.000807852
0.00198319
0.00334287
0.00476159
0.00606969
0.0070816
0.00764169
0.00767661
0.00723355
0.00648527
0.00569376
0.00513024
0.00121428
0.000528342
-7.5644e-05
-0.000441119
-0.000603423
-0.000570036
-0.000325447
0.000153147
0.000882428
0.00185518
0.00302178
0.00427851
0.00547061
0.00641698
0.0069557
0.00699881
0.00657312
0.00581943
0.00494323
0.00420931
0.00169793
0.000813323
9.13369e-05
-0.00031758
-0.000527707
-0.0005794
-0.000460644
-0.000136309
0.000432742
0.00126653
0.00234084
0.00356813
0.00479384
0.00581752
0.00644073
0.00653137
0.00607796
0.00519428
0.00406603
0.00302985
0.00173611
0.000650754
-0.000215179
-0.000711705
-0.0010203
-0.0012065
-0.00125567
-0.0011141
-0.000713271
1.4156e-06
0.00103777
0.00232825
0.00371538
0.0049662
0.00582054
0.0060688
0.00563047
0.00457984
0.00310261
0.00166827
0.0011164
-0.000147705
-0.00115886
-0.0017728
-0.00222754
-0.00260562
-0.00288345
-0.00298237
-0.00279653
-0.00222606
-0.00121769
0.00019556
0.00186232
0.00351416
0.00480678
0.005411
0.00512671
0.00395034
0.00206479
0.000134061
-0.000339676
-0.0017501
-0.00289952
-0.0036581
-0.00431075
-0.0049508
-0.00554146
-0.0059742
-0.00609775
-0.00575295
-0.0048195
-0.0032719
-0.00122777
0.00102078
0.00303027
0.0043018
0.00443839
0.00328008
0.000967415
-0.00157081
-0.00276912
-0.00428718
-0.00556382
-0.00649364
-0.00740012
-0.0083844
-0.00939604
-0.0102949
-0.0108778
-0.0109115
-0.0101826
-0.00856543
-0.0061013
-0.00306846
-3.54901e-06
0.00237755
0.00337598
0.00253868
-0.000140256
-0.00339809
-0.00625548
-0.00783781
-0.00922501
-0.0103461
-0.0115574
-0.0129696
-0.0145231
-0.0160491
-0.0172904
-0.0179272
-0.0176253
-0.0161129
-0.0132901
-0.00935209
-0.0048828
-0.000834414
0.00167537
0.00169441
-0.00113765
-0.00519176
-0.0108191
-0.0124181
-0.0138864
-0.0151964
-0.0167376
-0.0186382
-0.0208393
-0.023152
-0.0252688
-0.0267786
-0.0272049
-0.0260857
-0.0231095
-0.0182862
-0.0121465
-0.00583315
-0.000968887
0.000735209
-0.00178246
-0.0066009
-0.0164174
-0.0179801
-0.0194734
-0.0209206
-0.0227568
-0.0251447
-0.0280414
-0.0312502
-0.0344229
-0.0370604
-0.0385375
-0.0381719
-0.0353867
-0.0298881
-0.0220035
-0.0129259
-0.00477042
-0.000257755
-0.00163209
-0.00694791
-0.022964
-0.0244267
-0.0258392
-0.0272843
-0.0292779
-0.032047
-0.0355834
-0.0396947
-0.0440021
-0.047929
-0.050711
-0.0514527
-0.0492403
-0.0434299
-0.0339715
-0.0218753
-0.00957716
-0.0009354
8.94592e-05
-0.00503299
-0.0303786
-0.0316499
-0.0327874
-0.0339545
-0.0358226
-0.0387288
-0.0427162
-0.0476013
-0.052977
-0.058196
-0.0623669
-0.0643894
-0.0630612
-0.0573179
-0.0466195
-0.0315382
-0.0144983
-0.000378634
0.00472586
0.00114479
-0.0386897
-0.0395958
-0.0401054
-0.0405226
-0.0418089
-0.0444669
-0.0485947
-0.054003
-0.0602414
-0.0665844
-0.0720191
-0.0752639
-0.0748532
-0.0693367
-0.05765
-0.0397409
-0.0176142
0.00325427
0.0145421
0.0147445
-0.0482372
-0.0483679
-0.0475983
-0.0465291
-0.0466072
-0.0485351
-0.0524319
-0.0580566
-0.0648742
-0.0720508
-0.0784378
-0.0825774
-0.0827659
-0.0772201
-0.0644
-0.0435839
-0.0160217
0.0128856
0.032987
0.0403034
-0.0600197
-0.0583936
-0.055133
-0.0515001
-0.0496247
-0.0503374
-0.0536686
-0.0592383
-0.0663586
-0.0740369
-0.080953
-0.0854527
-0.0855928
-0.0792806
-0.0645634
-0.0401188
-0.00630061
0.0322723
0.0644698
0.0832637
-0.0762844
-0.0707403
-0.0626789
-0.0549897
-0.0504031
-0.0495293
-0.0520903
-0.0574395
-0.0646538
-0.0725242
-0.0795199
-0.083759
-0.0830299
-0.0748969
-0.05697
-0.0273381
0.0145648
0.0654868
0.114383
0.150182
-0.104187
-0.0879531
-0.069994
-0.056275
-0.0483755
-0.0457853
-0.0475967
-0.0527425
-0.0599781
-0.0678421
-0.0745861
-0.0781015
-0.0759006
-0.0651429
-0.0428422
-0.00618163
0.04678
0.115343
0.191496
0.258305
-0.175987
-0.114898
-0.073611
-0.0518843
-0.041175
-0.0375735
-0.039291
-0.0447504
-0.0523399
-0.0603864
-0.0670047
-0.069945
-0.0665293
-0.0535816
-0.0273756
0.0164256
0.0827586
0.177403
0.305448
0.452705
-0.355858
-0.155262
-0.070433
-0.0427767
-0.0313442
-0.0276002
-0.0297858
-0.0359767
-0.0442294
-0.052742
-0.0596005
-0.0625438
-0.0588447
-0.0451735
-0.0172392
0.0308272
0.108444
0.23338
0.434826
0.735891
)
;

boundaryField
{
    movingWall
    {
        type            zeroGradient;
    }
    fixedWalls
    {
        type            zeroGradient;
    }
    frontAndBack
    {
        type            empty;
    }
}


// ************************************************************************* //
