/*--------------------------------*- C++ -*----------------------------------*\
  =========                 |
  \\      /  F ield         | OpenFOAM: The Open Source CFD Toolbox
   \\    /   O peration     | Website:  https://openfoam.org
    \\  /    A nd           | Version:  13
     \\/     M anipulation  |
\*---------------------------------------------------------------------------*/
FoamFile
{
    format      ascii;
    class       volScalarField;
    location    "46";
    object      p;
}
// * * * * * * * * * * * * * * * * * * * * * * * * * * * * * * * * * * * * * //

dimensions      [0 2 -2 0 0 0 0];

internalField   nonuniform List<scalar> 
400
(
1.73363e-08
-0.000572522
-0.00121614
-0.00171903
-0.00195933
-0.00188478
-0.00147059
-0.000705679
0.000401137
0.00180582
0.00341457
0.0050749
0.00659093
0.00775098
0.00837968
0.00839551
0.00785522
0.00696878
0.0060479
0.00549422
0.000569846
-2.04032e-05
-0.000569783
-0.000957198
-0.00113219
-0.00106211
-0.000726081
-0.000109359
0.000788629
0.0019393
0.00326965
0.00466
0.00594058
0.00692969
0.00747412
0.00750167
0.00705909
0.00631872
0.00554314
0.00497252
0.00124557
0.000492858
-8.68e-05
-0.000441471
-0.000606307
-0.000576455
-0.000337411
0.000132476
0.000849572
0.00180676
0.00295471
0.00419167
0.00536432
0.0062937
0.00681914
0.00685279
0.00642065
0.00566807
0.00480882
0.00403707
0.00174048
0.000763541
7.35521e-05
-0.000322025
-0.000537235
-0.000592884
-0.00047838
-0.000160286
0.000399911
0.00122197
0.00228157
0.00349275
0.0047016
0.00570963
0.0063193
0.00639806
0.00593342
0.00505047
0.0039483
0.00284433
0.00179541
0.000595597
-0.000227836
-0.000704924
-0.00101823
-0.00120735
-0.0012595
-0.00112313
-0.000730612
-2.79329e-05
0.000991652
0.0022635
0.00362998
0.00486116
0.0056986
0.00593224
0.00548032
0.0044354
0.00299984
0.001462
0.00119466
-0.000203099
-0.00116341
-0.00175282
-0.0022115
-0.00259076
-0.00286937
-0.00297131
-0.00279203
-0.00223301
-0.00124415
0.000150444
0.00179278
0.00341977
0.00469016
0.00527466
0.00497183
0.0038056
0.00197893
-0.000104134
-0.000241688
-0.00180013
-0.00289233
-0.00362232
-0.00427779
-0.00491671
-0.00550515
-0.00593763
-0.00606465
-0.00572852
-0.00480699
-0.00328524
-0.00127041
0.000946629
0.00292622
0.0041698
0.00427919
0.00313548
0.000902537
-0.00185633
-0.00265204
-0.00432639
-0.0055413
-0.00643935
-0.00734719
-0.0083278
-0.00933395
-0.0102288
-0.0108113
-0.0108505
-0.0101336
-0.00853906
-0.00610712
-0.00311232
-8.64906e-05
0.00225498
0.00321259
0.00239521
-0.000177441
-0.00375303
-0.00612145
-0.00786177
-0.00918477
-0.0102718
-0.0114831
-0.0128894
-0.0144345
-0.0159529
-0.0171897
-0.0178277
-0.0175354
-0.0160428
-0.0132532
-0.00935757
-0.0049361
-0.000941483
0.00150801
0.00155451
-0.00113723
-0.00564688
-0.0106716
-0.0124237
-0.0138275
-0.0151021
-0.0166422
-0.0185359
-0.0207272
-0.0230305
-0.0251405
-0.0266492
-0.0270842
-0.0259776
-0.0230343
-0.0182542
-0.0121678
-0.00592222
-0.00114237
0.000602939
-0.00173148
-0.00719523
-0.0162605
-0.0179654
-0.0193958
-0.0208062
-0.0226415
-0.0250234
-0.0279114
-0.0311115
-0.0342776
-0.0369139
-0.0383954
-0.0380068
-0.0352842
-0.0298336
-0.0220052
-0.0130065
-0.00495991
-0.000375661
-0.00151612
-0.00772077
-0.022803
-0.0243901
-0.0257427
-0.0271485
-0.0291435
-0.0319107
-0.0354425
-0.0395494
-0.043855
-0.0477847
-0.05058
-0.0513772
-0.0491635
-0.0433941
-0.033989
-0.0219778
-0.00980603
-0.00102487
0.000279945
-0.0060001
-0.0302226
-0.0315863
-0.0326696
-0.0337921
-0.0356682
-0.0385799
-0.042569
-0.0474551
-0.0528343
-0.0580627
-0.0622511
-0.0643107
-0.0630224
-0.0573321
-0.0466929
-0.031705
-0.0148012
-0.000417173
0.0049655
2.27059e-05
-0.03856
-0.0394895
-0.0399613
-0.040327
-0.041635
-0.0443096
-0.0484456
-0.0538594
-0.060106
-0.0664655
-0.0719295
-0.0752216
-0.0748704
-0.0694215
-0.0578071
-0.0400022
-0.0180234
0.00327945
0.0146985
0.0135556
-0.0481748
-0.048157
-0.0474035
-0.0462842
-0.0464121
-0.0483713
-0.0522815
-0.0579132
-0.0647395
-0.0719354
-0.0783607
-0.0825613
-0.0828323
-0.0773739
-0.0646453
-0.0439371
-0.0165435
0.0130188
0.032931
0.0392807
-0.060235
-0.0579577
-0.0548673
-0.0512135
-0.0494272
-0.0501785
-0.0535204
-0.0590938
-0.0662201
-0.0739188
-0.0808795
-0.0854535
-0.085707
-0.0795199
-0.064942
-0.0406113
-0.00697894
0.0328167
0.0647937
0.0836767
-0.0774815
-0.0694733
-0.0620875
-0.0545495
-0.0501391
-0.0493252
-0.0519045
-0.0572611
-0.0644863
-0.0723851
-0.0794401
-0.0837785
-0.0832185
-0.0752831
-0.0576215
-0.0282114
0.0133524
0.0666609
0.115752
0.154807
-0.108926
-0.0850402
-0.0697735
-0.0563917
-0.0485411
-0.0458812
-0.0476243
-0.0527151
-0.0599173
-0.0677771
-0.0745525
-0.0781402
-0.0761045
-0.0655427
-0.0436433
-0.00744516
0.044743
0.114933
0.188078
0.263281
-0.168693
-0.100746
-0.0730932
-0.0522883
-0.0413103
-0.0376998
-0.0394421
-0.0448655
-0.0524159
-0.060447
-0.067074
-0.070048
-0.0666876
-0.0537885
-0.0278899
0.0154098
0.0800715
0.17276
0.285854
0.445985
-0.402754
-0.139031
-0.0734593
-0.0447303
-0.0305719
-0.0266176
-0.0290857
-0.0353736
-0.0436542
-0.0522075
-0.0591241
-0.0621457
-0.0586176
-0.0452141
-0.0174509
0.0310786
0.108495
0.236657
0.427487
0.79368
)
;

boundaryField
{
    movingWall
    {
        type            zeroGradient;
    }
    fixedWalls
    {
        type            zeroGradient;
    }
    frontAndBack
    {
        type            empty;
    }
}


// ************************************************************************* //
