/*--------------------------------*- C++ -*----------------------------------*\
  =========                 |
  \\      /  F ield         | OpenFOAM: The Open Source CFD Toolbox
   \\    /   O peration     | Website:  https://openfoam.org
    \\  /    A nd           | Version:  13
     \\/     M anipulation  |
\*---------------------------------------------------------------------------*/
FoamFile
{
    format      ascii;
    class       surfaceScalarField;
    location    "46";
    object      phi;
}
// * * * * * * * * * * * * * * * * * * * * * * * * * * * * * * * * * * * * * //

dimensions      [0 3 -1 0 0 0 0];

internalField   nonuniform List<scalar> 
760
(
4.52254e-06
-4.81494e-06
-3.89166e-05
4.34387e-05
-0.000131801
9.28832e-05
-0.000258091
0.00012629
-0.000401799
0.000143708
-0.000549493
0.000147694
-0.000689255
0.00013976
-0.00080929
0.000120037
-0.000897378
8.80888e-05
-0.000941569
4.41924e-05
-0.000932125
-9.44486e-06
-0.000864298
-6.78261e-05
-0.000741168
-0.000123129
-0.000575528
-0.000165638
-0.000389692
-0.000185835
-0.000212406
-0.000177285
-7.28736e-05
-0.000139532
7.14746e-06
-8.00216e-05
2.27961e-05
-1.56492e-05
2.27959e-05
-4.75022e-05
4.26873e-05
-0.000210441
0.000206376
-0.00047538
0.00035782
-0.000809626
0.000460536
-0.00117875
0.000512833
-0.00155107
0.00052001
-0.00189694
0.000485632
-0.00218733
0.000410426
-0.00239371
0.000294471
-0.00249013
0.000140616
-0.00245728
-4.22879e-05
-0.00228766
-0.000237444
-0.00199058
-0.000420205
-0.00159516
-0.000561054
-0.00114953
-0.00063147
-0.000714692
-0.000612119
-0.000352841
-0.000501384
-0.000111414
-0.000321451
-5.75139e-06
-0.000121313
1.70453e-05
-0.000112381
0.000155068
-0.000407331
0.000501324
-0.000838486
0.000788973
-0.00135653
0.000978579
-0.00191429
0.00107059
-0.00246806
0.00107378
-0.00297633
0.000993908
-0.0033986
0.000832703
-0.00369595
0.000591815
-0.00383391
0.000278579
-0.00378748
-8.87127e-05
-0.00354715
-0.000477776
-0.00312474
-0.000842606
-0.00255738
-0.00112841
-0.00190734
-0.0012815
-0.00125575
-0.00126371
-0.000688624
-0.00106851
-0.000276645
-0.000733432
-5.33351e-05
-0.000344622
-3.62885e-05
-0.0001742
0.000329267
-0.000596616
0.000923739
-0.00118468
0.00137704
-0.00187005
0.00166394
-0.00259435
0.0017949
-0.00330566
0.00178509
-0.00395516
0.00164341
-0.00449539
0.00137293
-0.00488073
0.000977162
-0.00507044
0.00046829
-0.0050336
-0.000125553
-0.00475548
-0.000755893
-0.00424439
-0.00135369
-0.00353762
-0.00183518
-0.00270413
-0.00211499
-0.00184076
-0.00212708
-0.0010585
-0.00185078
-0.000458447
-0.00133348
-0.000103658
-0.000699409
-0.000139946
-0.000229234
0.0005585
-0.000766833
0.00146134
-0.00149694
0.00210714
-0.00233275
0.00249975
-0.00320623
0.00266838
-0.00406002
0.00263887
-0.00484149
0.00242489
-0.00549963
0.00203106
-0.00598456
0.00146209
-0.00624976
0.000733499
-0.00625647
-0.000118844
-0.00597993
-0.00103243
-0.00541771
-0.0019159
-0.00459888
-0.00265402
-0.00359192
-0.00312195
-0.00250662
-0.00321238
-0.00148333
-0.00287407
-0.000665174
-0.00215163
-0.00015851
-0.00120607
-0.000298456
-0.000275591
0.000834091
-0.000911243
0.00209699
-0.00176328
0.00295918
-0.00272926
0.00346573
-0.00373372
0.00367285
-0.00471651
0.00362167
-0.00562425
0.00333263
-0.0064052
0.00281201
-0.0070072
0.00206409
-0.00737832
0.00110463
-0.00746996
-2.72004e-05
-0.00724261
-0.00125978
-0.00667562
-0.00248289
-0.0057803
-0.00354934
-0.00461513
-0.00428712
-0.0032971
-0.00453041
-0.00199862
-0.00417254
-0.000918441
-0.00323181
-0.000225426
-0.00189909
-0.000523884
-0.000311347
0.00114544
-0.00102354
0.00280918
-0.00197192
0.00390756
-0.00304231
0.00453612
-0.00415454
0.00478508
-0.00524827
0.0047154
-0.0062722
0.00435656
-0.00717672
0.00371653
-0.00790982
0.00279719
-0.00841549
0.00161029
-0.00863477
0.000192084
-0.00851068
-0.00138387
-0.00799788
-0.00299569
-0.00707972
-0.00446751
-0.00579139
-0.00557544
-0.00424464
-0.00607716
-0.00263994
-0.00577723
-0.0012437
-0.00462805
-0.000313845
-0.00282895
-0.000837732
-0.000334583
0.00148002
-0.00109763
0.00357222
-0.00211095
0.00492088
-0.00325277
0.00567795
-0.00444088
0.00597319
-0.00561723
0.00589176
-0.00673533
0.00547466
-0.00775086
0.00473207
-0.00861531
0.00366164
-0.00927183
0.00226682
-0.00965378
0.000574031
-0.00968703
-0.00135061
-0.00929858
-0.00338414
-0.00843461
-0.00533148
-0.0070907
-0.00691934
-0.00535221
-0.00781565
-0.0034311
-0.00769834
-0.00166519
-0.00639396
-0.000434105
-0.00406004
-0.00127184
-0.000344053
0.00182407
-0.00112906
0.00435723
-0.00217051
0.00596233
-0.00334264
0.00685008
-0.00456348
0.00719403
-0.00577944
0.00710772
-0.00695146
0.00664669
-0.008044
0.00582461
-0.0090165
0.00463413
-0.00981683
0.00306715
-0.0103767
0.00113391
-0.0106104
-0.00111695
-0.0104193
-0.00357518
-0.00970786
-0.00604296
-0.0084158
-0.00821141
-0.00657331
-0.00965813
-0.00437028
-0.00990137
-0.00220082
-0.00856343
-0.000597041
-0.00566381
-0.00186888
-0.000340283
0.00216436
-0.00111775
0.0051347
-0.00214694
0.00699152
-0.00330065
0.00800379
-0.00449899
0.00839238
-0.00569475
0.00830348
-0.00685882
0.00781077
-0.00796802
0.00693381
-0.00899496
0.00566107
-0.00989946
0.00397165
-0.0106209
0.00185539
-0.0110724
-0.000665505
-0.0111394
-0.00350815
-0.0106874
-0.00649496
-0.0095905
-0.00930833
-0.00779316
-0.0114555
-0.00541292
-0.0122816
-0.00285429
-0.0111221
-0.000813376
-0.00770473
-0.00268225
-0.00032706
0.00249142
-0.00107146
0.0058791
-0.00204812
0.00796818
-0.00312945
0.00908513
-0.00423946
0.0095024
-0.0053395
0.00940352
-0.00641305
0.00888431
-0.00745266
0.00797343
-0.00844919
0.0066576
-0.00938194
0.0049044
-0.010209
0.0026825
-0.0108558
-1.87494e-05
-0.0112091
-0.00315486
-0.0111087
-0.0065953
-0.0103662
-0.0100508
-0.00881873
-0.013003
-0.00645337
-0.014647
-0.00360279
-0.0139727
-0.00109202
-0.0102155
-0.00377428
-0.000313339
0.00280476
-0.00100995
0.00657572
-0.00189919
0.00885742
-0.00285269
0.0100386
-0.0038013
0.010451
-0.00471858
0.0103208
-0.00560374
0.00976948
-0.00646818
0.00883787
-0.00732477
0.0075142
-0.00817823
0.00575787
-0.00901435
0.00351862
-0.00978811
0.000755006
-0.0104036
-0.00253932
-0.0107027
-0.00629627
-0.0104544
-0.0102991
-0.00938838
-0.014069
-0.00731333
-0.016722
-0.00438065
-0.0169053
-0.00143612
-0.01316
-0.0052104
-0.000315962
0.00312072
-0.000969701
0.00722946
-0.00174747
0.00963519
-0.00251944
0.0108106
-0.00322982
0.0111614
-0.0038711
0.0109621
-0.00446288
0.0103613
-0.00503806
0.00941305
-0.00563339
0.00810953
-0.00628145
0.00640594
-0.00700137
0.00423854
-0.00778581
0.00153945
-0.00858031
-0.00174483
-0.00925661
-0.00561997
-0.00958124
-0.00997443
-0.00920632
-0.0144439
-0.00774684
-0.0181815
-0.00506359
-0.0195886
-0.00183504
-0.0163886
-0.00704544
-0.000364114
0.00348483
-0.00100917
0.00787452
-0.00166461
0.0102906
-0.00220209
0.0113481
-0.00259334
0.0115527
-0.0028618
0.0112305
-0.00305426
0.0105537
-0.00322753
0.00958632
-0.0034418
0.00832381
-0.0037559
0.00672004
-0.00422136
0.00470401
-0.00487252
0.0021906
-0.00570828
-0.000909071
-0.00666028
-0.00466797
-0.00754226
-0.00909245
-0.00799138
-0.0139948
-0.00746397
-0.0187089
-0.00545974
-0.0215928
-0.00225028
-0.019598
-0.00929572
-0.000506091
0.00399093
-0.00121251
0.00858094
-0.00173923
0.0108174
-0.00197675
0.0115856
-0.00195327
0.0115292
-0.00174241
0.0110197
-0.00142712
0.0102384
-0.00109007
0.00924927
-0.00081249
0.00804623
-0.000674417
0.00658196
-0.000753822
0.00478341
-0.00112235
0.00255912
-0.00183388
-0.000197541
-0.00289766
-0.00360418
-0.00422152
-0.0077686
-0.0055112
-0.0127051
-0.00615753
-0.0180626
-0.00530602
-0.0224443
-0.00259267
-0.0223114
-0.0118884
-0.000811538
0.00480246
-0.00167616
0.00944556
-0.00203154
0.0111727
-0.00184773
0.0114018
-0.00126643
0.0109479
-0.000438533
0.0101918
0.000508064
0.00929184
0.001465
0.00829233
0.0023349
0.00717633
0.00302394
0.00589291
0.00343685
0.0043705
0.00347475
0.00252122
0.00303795
0.000239252
0.00204068
-0.0026069
0.000455646
-0.00618356
-0.00157175
-0.0106777
-0.00350851
-0.0161258
-0.00425903
-0.0216938
-0.00268887
-0.0238815
-0.0145773
-0.00134803
0.0061505
-0.00241585
0.0105134
-0.00237918
0.0111361
-0.00148569
0.0105083
-9.19751e-05
0.00955415
0.00155045
0.00854937
0.00327213
0.00757016
0.00494948
0.00661497
0.00648118
0.00564463
0.00777203
0.00460207
0.00872193
0.00342061
0.00921859
0.00202456
0.00913301
0.000324838
0.00832173
-0.00179562
0.00664575
-0.00450758
0.00405598
-0.00808798
0.00084809
-0.0129179
-0.00188147
-0.0189642
-0.00225479
-0.0235082
-0.0168321
-0.00213516
0.00828565
-0.00292014
0.0112984
-0.00168301
0.00989894
0.000541602
0.00828368
0.00312498
0.00697078
0.00577614
0.00589821
0.00834165
0.00500464
0.0107246
0.00423206
0.0128503
0.00351892
0.0146455
0.00280683
0.0160246
0.00204154
0.0168807
0.00116842
0.0170771
0.000128398
0.0164425
-0.00116098
0.0147617
-0.00282675
0.0118005
-0.00512683
0.00746801
-0.00858539
0.00245087
-0.0139471
-0.000882255
-0.0201751
-0.0177143
-0.00248824
0.0107739
-1.28818e-05
0.008823
0.00417775
0.0057083
0.00832885
0.00413258
0.0121251
0.00317453
0.015535
0.00248828
0.018559
0.00198066
0.0212022
0.00158891
0.0234607
0.0012604
0.0253115
0.000956037
0.0267074
0.000645635
0.0275711
0.000304668
0.0277903
-9.07715e-05
0.0272056
-0.000576266
0.0255803
-0.00120141
0.022553
-0.00209952
0.017622
-0.0036544
0.0104033
-0.00672839
0.00247618
-0.012248
-0.0152381
0.0107739
0.0195969
0.0253052
0.0294378
0.0326123
0.0351006
0.0370812
0.0386702
0.0399306
0.0408866
0.0415322
0.0418369
0.0417461
0.0411699
0.0399684
0.0378689
0.0342145
0.0274861
0.0152381
)
;

boundaryField
{
    movingWall
    {
        type            calculated;
        value           uniform 0;
    }
    fixedWalls
    {
        type            calculated;
        value           uniform 0;
    }
    frontAndBack
    {
        type            empty;
    }
}


// ************************************************************************* //
