/*--------------------------------*- C++ -*----------------------------------*\
  =========                 |
  \\      /  F ield         | OpenFOAM: The Open Source CFD Toolbox
   \\    /   O peration     | Website:  https://openfoam.org
    \\  /    A nd           | Version:  13
     \\/     M anipulation  |
\*---------------------------------------------------------------------------*/
FoamFile
{
    format      ascii;
    class       volVectorField;
    location    "46";
    object      U;
}
// * * * * * * * * * * * * * * * * * * * * * * * * * * * * * * * * * * * * * //

dimensions      [0 1 -1 0 0 0 0];

internalField   nonuniform List<vector> 
400
(
(0.00018249 -0.000188349 0)
(-0.000139047 2.91466e-05 0)
(-0.00153519 0.000268101 0)
(-0.0037905 0.000419432 0)
(-0.00655533 0.000499451 0)
(-0.0095277 0.00053005 0)
(-0.012457 0.000521011 0)
(-0.0151092 0.000471231 0)
(-0.0172427 0.000373857 0)
(-0.0186101 0.000223436 0)
(-0.0189851 2.32019e-05 0)
(-0.018212 -0.000209386 0)
(-0.0162659 -0.000440221 0)
(-0.0133032 -0.000622558 0)
(-0.00968206 -0.00070763 0)
(-0.00593091 -0.000660444 0)
(-0.00265783 -0.000474909 0)
(-0.000405526 -0.000181762 0)
(0.000542089 0.000137755 0)
(0.000310317 0.000303317 0)
(-4.71607e-05 0.000133707 0)
(-0.00208363 0.00193216 0)
(-0.0064428 0.00376363 0)
(-0.0126014 0.00502976 0)
(-0.019799 0.00569638 0)
(-0.0273633 0.0058402 0)
(-0.0346882 0.00551185 0)
(-0.0411899 0.00471756 0)
(-0.0462871 0.00344738 0)
(-0.0494201 0.00172083 0)
(-0.050115 -0.000368921 0)
(-0.0480814 -0.0026266 0)
(-0.0433213 -0.00475406 0)
(-0.0362152 -0.00638716 0)
(-0.0275507 -0.00717241 0)
(-0.0184572 -0.0068725 0)
(-0.0102275 -0.00547305 0)
(-0.00403281 -0.00325758 0)
(-0.000574897 -0.000860059 0)
(0.00022238 0.000591335 0)
(-0.000353543 0.00171728 0)
(-0.00449351 0.0064719 0)
(-0.0118877 0.0106861 0)
(-0.0216317 0.0135359 0)
(-0.0326254 0.0149723 0)
(-0.0439551 0.015123 0)
(-0.0547803 0.0140773 0)
(-0.0642826 0.0118574 0)
(-0.0716578 0.00847651 0)
(-0.0761524 0.00402989 0)
(-0.077146 -0.00122075 0)
(-0.0742668 -0.00679719 0)
(-0.0675179 -0.0120112 0)
(-0.0573814 -0.0160441 0)
(-0.0448648 -0.018105 0)
(-0.0314443 -0.0176535 0)
(-0.0188647 -0.0146356 0)
(-0.00879525 -0.00965686 0)
(-0.00241852 -0.00405563 0)
(3.57978e-05 2.74638e-05 0)
(-0.000631384 0.00459986 0)
(-0.0068221 0.0136917 0)
(-0.0171275 0.02095 0)
(-0.0301957 0.0256652 0)
(-0.044584 0.0279023 0)
(-0.0591974 0.0278809 0)
(-0.0730493 0.0257402 0)
(-0.0851797 0.0215263 0)
(-0.0946474 0.0152916 0)
(-0.100569 0.0072332 0)
(-0.1022 -0.00218222 0)
(-0.0990573 -0.0121455 0)
(-0.0910497 -0.0215123 0)
(-0.0786151 -0.0289155 0)
(-0.062816 -0.0330009 0)
(-0.0453431 -0.0327804 0)
(-0.0283514 -0.0280393 0)
(-0.0140924 -0.0196639 0)
(-0.00443388 -0.00975229 0)
(-0.000124691 -0.00151325 0)
(-0.000870822 0.00866578 0)
(-0.00890527 0.0233634 0)
(-0.0218532 0.0342231 0)
(-0.0379228 0.040976 0)
(-0.0553512 0.0439754 0)
(-0.0729071 0.0436087 0)
(-0.0895243 0.0400924 0)
(-0.104175 0.033503 0)
(-0.115842 0.0239284 0)
(-0.123545 0.0116569 0)
(-0.126408 -0.00265723 0)
(-0.123763 -0.0178886 0)
(-0.115304 -0.0324281 0)
(-0.101259 -0.044298 0)
(-0.0825787 -0.0514385 0)
(-0.0610532 -0.0521918 0)
(-0.0392537 -0.0459342 0)
(-0.0201833 -0.0336614 0)
(-0.00668654 -0.0182313 0)
(-0.000271134 -0.00408904 0)
(-0.00106806 0.0137539 0)
(-0.0106608 0.0351839 0)
(-0.025871 0.0501517 0)
(-0.044527 0.0591016 0)
(-0.064598 0.0628496 0)
(-0.0847651 0.0620427 0)
(-0.10394 0.0570124 0)
(-0.12109 0.0478683 0)
(-0.135175 0.0347102 0)
(-0.145144 0.0178693 0)
(-0.149971 -0.00187938 0)
(-0.148743 -0.0231639 0)
(-0.140811 -0.0439518 0)
(-0.126021 -0.0616184 0)
(-0.105007 -0.0732347 0)
(-0.0794867 -0.0761612 0)
(-0.0523954 -0.0689577 0)
(-0.0276514 -0.0523901 0)
(-0.00945795 -0.0300206 0)
(-0.000446479 -0.00785036 0)
(-0.00121542 0.0196708 0)
(-0.0120137 0.048768 0)
(-0.0290021 0.0682855 0)
(-0.0497155 0.0795972 0)
(-0.0719259 0.084136 0)
(-0.0942775 0.082902 0)
(-0.115715 0.0763839 0)
(-0.135259 0.0647243 0)
(-0.151901 0.0479965 0)
(-0.16456 0.0264982 0)
(-0.172074 0.00101575 0)
(-0.173251 -0.0269563 0)
(-0.167012 -0.0550619 0)
(-0.152654 -0.0800483 0)
(-0.130255 -0.097976 0)
(-0.101179 -0.104854 0)
(-0.0685175 -0.0978392 0)
(-0.0371582 -0.076866 0)
(-0.0131094 -0.0459714 0)
(-0.000702233 -0.0131269 0)
(-0.0013042 0.0261838 0)
(-0.0128917 0.0636421 0)
(-0.0310736 0.0880564 0)
(-0.0531839 0.101884 0)
(-0.0768718 0.1073 0)
(-0.100793 0.105747 0)
(-0.123976 0.0979184 0)
(-0.145552 0.0839923 0)
(-0.164614 0.0639732 0)
(-0.180118 0.0380353 0)
(-0.190825 0.00684068 0)
(-0.195303 -0.0281644 0)
(-0.192023 -0.0644732 0)
(-0.17962 -0.0983219 0)
(-0.157363 -0.124717 0)
(-0.125873 -0.137971 0)
(-0.0879614 -0.133104 0)
(-0.049278 -0.108239 0)
(-0.0180357 -0.0672548 0)
(-0.00110167 -0.0204524 0)
(-0.00132968 0.0330257 0)
(-0.0132484 0.0792541 0)
(-0.0319549 0.108779 0)
(-0.054667 0.125222 0)
(-0.0789783 0.1316 0)
(-0.103596 0.129882 0)
(-0.127678 0.121018 0)
(-0.150527 0.105239 0)
(-0.171414 0.0824507 0)
(-0.189434 0.0526206 0)
(-0.203391 0.0161471 0)
(-0.211733 -0.0257703 0)
(-0.212572 -0.0707225 0)
(-0.203874 -0.114688 0)
(-0.183907 -0.151761 0)
(-0.152099 -0.17438 0)
(-0.110301 -0.174661 0)
(-0.0643075 -0.147514 0)
(-0.0246355 -0.0952829 0)
(-0.00172801 -0.0305782 0)
(-0.00129857 0.0399176 0)
(-0.0131007 0.0950063 0)
(-0.0316254 0.12967 0)
(-0.0540356 0.14871 0)
(-0.0779207 0.156056 0)
(-0.102074 0.154287 0)
(-0.125824 0.144677 0)
(-0.148704 0.127544 0)
(-0.170249 0.102692 0)
(-0.189817 0.0698343 0)
(-0.20642 0.0289895 0)
(-0.218591 -0.0190879 0)
(-0.224298 -0.0723873 0)
(-0.220981 -0.127027 0)
(-0.205875 -0.176584 0)
(-0.176837 -0.211779 0)
(-0.133933 -0.221277 0)
(-0.0819889 -0.195071 0)
(-0.0332552 -0.131518 0)
(-0.00269517 -0.0444799 0)
(-0.00123888 0.0466175 0)
(-0.0125815 0.110325 0)
(-0.0302639 0.149906 0)
(-0.0514193 0.171309 0)
(-0.07367 0.179449 0)
(-0.0959351 0.177603 0)
(-0.117758 0.167447 0)
(-0.138962 0.149443 0)
(-0.159426 0.123328 0)
(-0.178892 0.0885569 0)
(-0.196767 0.0447133 0)
(-0.211916 -0.00804805 0)
(-0.222479 -0.068435 0)
(-0.2257 -0.133183 0)
(-0.217982 -0.196023 0)
(-0.195485 -0.246578 0)
(-0.155744 -0.270075 0)
(-0.101135 -0.250009 0)
(-0.0440619 -0.177105 0)
(-0.0041576 -0.0633462 0)
(-0.00121332 0.0530028 0)
(-0.0120031 0.124776 0)
(-0.0283481 0.16871 0)
(-0.0473334 0.191909 0)
(-0.0666492 0.200378 0)
(-0.08541 0.198192 0)
(-0.103444 0.187506 0)
(-0.120921 0.168999 0)
(-0.138131 0.1424 0)
(-0.155289 0.106955 0)
(-0.172341 0.0618279 0)
(-0.188743 0.00650377 0)
(-0.203139 -0.0586583 0)
(-0.213033 -0.13152 0)
(-0.214509 -0.206812 0)
(-0.202308 -0.274182 0)
(-0.171073 -0.316303 0)
(-0.119248 -0.309411 0)
(-0.0567971 -0.232264 0)
(-0.00631264 -0.0885183 0)
(-0.00134078 0.0591996 0)
(-0.0119411 0.138221 0)
(-0.0267542 0.185467 0)
(-0.0427716 0.209407 0)
(-0.0578195 0.217337 0)
(-0.0713516 0.214236 0)
(-0.0835979 0.202801 0)
(-0.0951478 0.183977 0)
(-0.106738 0.157552 0)
(-0.119096 0.122649 0)
(-0.132776 0.0780903 0)
(-0.147949 0.0227438 0)
(-0.164076 -0.0440239 0)
(-0.179435 -0.121563 0)
(-0.190508 -0.20643 0)
(-0.191389 -0.28979 0)
(-0.174143 -0.353648 0)
(-0.132332 -0.367829 0)
(-0.0703943 -0.295399 0)
(-0.00938172 -0.121308 0)
(-0.00183691 0.0657807 0)
(-0.0133529 0.151014 0)
(-0.0268418 0.199831 0)
(-0.0392077 0.22276 0)
(-0.0485969 0.228768 0)
(-0.0550844 0.223843 0)
(-0.0594964 0.211212 0)
(-0.0629287 0.192077 0)
(-0.0665799 0.166318 0)
(-0.0716588 0.133011 0)
(-0.0792918 0.0907702 0)
(-0.0903781 0.0380047 0)
(-0.105328 -0.0267933 0)
(-0.123593 -0.104492 0)
(-0.142844 -0.194024 0)
(-0.157728 -0.289578 0)
(-0.158877 -0.375227 0)
(-0.135048 -0.417342 0)
(-0.0825014 -0.362066 0)
(-0.0135178 -0.162535 0)
(-0.00307421 0.0740585 0)
(-0.0177257 0.164205 0)
(-0.0304362 0.21172 0)
(-0.0383271 0.230899 0)
(-0.0403518 0.233009 0)
(-0.0377145 0.225049 0)
(-0.0321195 0.210628 0)
(-0.0252672 0.191087 0)
(-0.0188032 0.16635 0)
(-0.0143375 0.135484 0)
(-0.0134497 0.0970216 0)
(-0.0176481 0.0491368 0)
(-0.0282345 -0.0102339 0)
(-0.0459739 -0.0831586 0)
(-0.070331 -0.170949 0)
(-0.0978316 -0.271849 0)
(-0.11961 -0.375029 0)
(-0.121046 -0.44846 0)
(-0.0889761 -0.42431 0)
(-0.0184951 -0.211723 0)
(-0.0055704 0.086582 0)
(-0.0270647 0.179628 0)
(-0.039274 0.220959 0)
(-0.0408003 0.232277 0)
(-0.032646 0.227905 0)
(-0.017996 0.21555 0)
(0.000239488 0.198793 0)
(0.0196965 0.178827 0)
(0.0383474 0.15548 0)
(0.0543115 0.127788 0)
(0.0657252 0.0942939 0)
(0.070669 0.05316 0)
(0.0671599 0.00216908 0)
(0.0532761 -0.0613477 0)
(0.0276198 -0.140438 0)
(-0.00919435 -0.237466 0)
(-0.051111 -0.349145 0)
(-0.0830528 -0.451571 0)
(-0.0833964 -0.47114 0)
(-0.0231115 -0.266739 0)
(-0.00989169 0.10871 0)
(-0.04293 0.199615 0)
(-0.0520903 0.225819 0)
(-0.0415539 0.223395 0)
(-0.017533 0.209698 0)
(0.0136973 0.191945 0)
(0.0479564 0.172829 0)
(0.08241 0.152915 0)
(0.114892 0.131698 0)
(0.1435 0.108114 0)
(0.166333 0.0807782 0)
(0.181315 0.0480289 0)
(0.186077 0.00786137 0)
(0.177918 -0.0423259 0)
(0.153892 -0.106217 0)
(0.111626 -0.189112 0)
(0.0524252 -0.295993 0)
(-0.0124411 -0.417739 0)
(-0.0567133 -0.488956 0)
(-0.0246505 -0.324046 0)
(-0.0178122 0.151664 0)
(-0.061278 0.223637 0)
(-0.0522049 0.217698 0)
(-0.0142325 0.195008 0)
(0.035613 0.171154 0)
(0.0888773 0.14918 0)
(0.141569 0.12948 0)
(0.191398 0.111463 0)
(0.236766 0.0940932 0)
(0.276269 0.0761902 0)
(0.308377 0.0565232 0)
(0.331223 0.0337712 0)
(0.342428 0.00641931 0)
(0.339001 -0.0275142 0)
(0.317136 -0.0711895 0)
(0.272254 -0.130546 0)
(0.20016 -0.216494 0)
(0.103016 -0.338354 0)
(0.00437637 -0.456787 0)
(-0.0159584 -0.369327 0)
(-0.0242254 0.208262 0)
(-0.0379175 0.230353 0)
(0.0372789 0.17654 0)
(0.125085 0.136878 0)
(0.205892 0.109097 0)
(0.278112 0.0882597 0)
(0.342405 0.0721642 0)
(0.399053 0.0592219 0)
(0.448097 0.0480525 0)
(0.489307 0.0375249 0)
(0.522006 0.026701 0)
(0.544961 0.0147346 0)
(0.556293 0.000753851 0)
(0.553351 -0.0163124 0)
(0.532325 -0.0383033 0)
(0.487753 -0.0691601 0)
(0.411148 -0.119103 0)
(0.290892 -0.209351 0)
(0.133136 -0.338288 0)
(0.0387768 -0.340366 0)
(0.241885 0.109131 0)
(0.31345 0.0971147 0)
(0.444314 0.0569663 0)
(0.549628 0.0351078 0)
(0.624072 0.0237387 0)
(0.679634 0.0167091 0)
(0.723529 0.011979 0)
(0.758852 0.00869257 0)
(0.787149 0.00625298 0)
(0.809218 0.00422934 0)
(0.825236 0.00232748 0)
(0.834835 0.000339524 0)
(0.837154 -0.0019108 0)
(0.830776 -0.0045919 0)
(0.813399 -0.00802918 0)
(0.781134 -0.0128845 0)
(0.725689 -0.0212282 0)
(0.629862 -0.0380913 0)
(0.459268 -0.0855484 0)
(0.304894 -0.125697 0)
)
;

boundaryField
{
    movingWall
    {
        type            fixedValue;
        value           uniform (1 0 0);
    }
    fixedWalls
    {
        type            fixedValue;
        value           uniform (0 0 0);
    }
    frontAndBack
    {
        type            empty;
    }
}


// ************************************************************************* //
