/*--------------------------------*- C++ -*----------------------------------*\
  =========                 |
  \\      /  F ield         | OpenFOAM: The Open Source CFD Toolbox
   \\    /   O peration     | Website:  https://openfoam.org
    \\  /    A nd           | Version:  13
     \\/     M anipulation  |
\*---------------------------------------------------------------------------*/
FoamFile
{
    format      ascii;
    class       volScalarField;
    location    "33";
    object      p;
}
// * * * * * * * * * * * * * * * * * * * * * * * * * * * * * * * * * * * * * //

dimensions      [0 2 -2 0 0 0 0];

internalField   nonuniform List<scalar> 
400
(
-7.6048e-12
-0.000523367
-0.00116018
-0.00165077
-0.0018762
-0.00178771
-0.00136162
-0.000587773
0.000524063
0.00192953
0.00353489
0.00519091
0.00670351
0.00786496
0.00850337
0.0085385
0.00802478
0.00716555
0.00628886
0.00573927
0.000530177
-1.12636e-05
-0.000572454
-0.000963715
-0.00113148
-0.00104931
-0.000696874
-5.99683e-05
0.000860944
0.0020363
0.00339285
0.00480674
0.00611061
0.00712144
0.00768549
0.00772965
0.00729941
0.00656407
0.00578193
0.00522259
0.00119189
0.000513213
-7.97621e-05
-0.000437224
-0.000590107
-0.000545955
-0.000290378
0.000198213
0.000935164
0.00191226
0.00307969
0.00433467
0.00552446
0.00647043
0.0070127
0.00706394
0.00664952
0.00590724
0.00504068
0.00431168
0.00166559
0.00079009
8.16968e-05
-0.000318475
-0.000517554
-0.000555718
-0.000422389
-8.40569e-05
0.000496517
0.00133774
0.00241474
0.00364069
0.00486313
0.00588455
0.00650929
0.00660669
0.00616416
0.00529252
0.00417695
0.00314798
0.00169939
0.000624446
-0.000225423
-0.000711641
-0.00100623
-0.00117452
-0.00120383
-0.00104266
-0.000625139
0.000100932
0.00114204
0.0024311
0.00381267
0.0050573
0.0059087
0.00616007
0.00573063
0.00469203
0.00323108
0.00180676
0.00108487
-0.000168287
-0.00116145
-0.00176273
-0.00219915
-0.00255332
-0.00280421
-0.0028761
-0.00266671
-0.00207956
-0.00106369
0.000348141
0.00200592
0.00364528
0.00492719
0.00552728
0.0052468
0.00408052
0.00221458
0.000296922
-0.000353511
-0.00175323
-0.00288341
-0.00362615
-0.00425487
-0.00486346
-0.00541836
-0.00581481
-0.00590607
-0.00553745
-0.00459186
-0.00304573
-0.00101482
0.00121268
0.00319992
0.00445548
0.00458632
0.00343284
0.00114199
-0.00138025
-0.00275171
-0.0042601
-0.00551716
-0.00642735
-0.00730337
-0.00824756
-0.00921327
-0.010065
-0.0106051
-0.010606
-0.00985892
-0.00824128
-0.00579402
-0.0027919
0.000236137
0.00258456
0.00356204
0.00271933
6.18021e-05
-0.00317784
-0.00619447
-0.00776896
-0.0091374
-0.010235
-0.0114092
-0.0127725
-0.0142695
-0.0157367
-0.0169237
-0.0175174
-0.0171895
-0.0156728
-0.0128686
-0.00896977
-0.00455256
-0.000556627
0.00191157
0.00190873
-0.000906878
-0.00494234
-0.0107057
-0.0122995
-0.0137514
-0.0150348
-0.0165333
-0.0183774
-0.0205127
-0.0227562
-0.0248081
-0.0262648
-0.0266574
-0.0255292
-0.0225703
-0.0177906
-0.0117142
-0.00547169
-0.000672099
0.000987994
-0.00152458
-0.00632698
-0.0162484
-0.0178091
-0.0192904
-0.0207101
-0.0225007
-0.0248274
-0.0276521
-0.0307847
-0.0338854
-0.0364637
-0.0379024
-0.0375256
-0.0347539
-0.0292978
-0.02148
-0.0124836
-0.00441191
3.31635e-05
-0.00135379
-0.00666037
-0.0227427
-0.0242074
-0.0256145
-0.0270347
-0.0289839
-0.0316918
-0.0351547
-0.0391878
-0.0434216
-0.0472892
-0.0500336
-0.0507624
-0.0485668
-0.0427968
-0.0334006
-0.0213832
-0.00917522
-0.000617199
0.000374899
-0.00475027
-0.0301152
-0.0313927
-0.032534
-0.0336831
-0.0355133
-0.0383631
-0.0422801
-0.0470895
-0.0523956
-0.0575618
-0.0617041
-0.0637246
-0.0624194
-0.0567179
-0.0460747
-0.0310584
-0.0140956
-5.69632e-05
0.00499981
0.00139799
-0.0384002
-0.0393166
-0.0398413
-0.0402522
-0.0415118
-0.0441217
-0.0481846
-0.0535222
-0.0596973
-0.0659972
-0.0714172
-0.074677
-0.0743054
-0.0688419
-0.0572102
-0.03935
-0.0172718
0.00354113
0.0147787
0.0149406
-0.0479423
-0.0480862
-0.0473448
-0.0462852
-0.0463503
-0.0482385
-0.052075
-0.0576323
-0.0643914
-0.0715335
-0.0779194
-0.0820927
-0.082342
-0.0768692
-0.0641155
-0.0433431
-0.0158039
0.0130811
0.0331425
0.0404153
-0.0597434
-0.0581329
-0.0549141
-0.0513086
-0.0494325
-0.0501106
-0.0533814
-0.0588822
-0.0659441
-0.0735917
-0.0805161
-0.0850645
-0.0852853
-0.0790682
-0.0644374
-0.0400478
-0.00624835
0.0323231
0.0644993
0.0832745
-0.0760518
-0.070528
-0.0625206
-0.0548737
-0.0502928
-0.0493821
-0.0518764
-0.0571501
-0.0643017
-0.072141
-0.0791484
-0.0834442
-0.0828086
-0.0747884
-0.0569679
-0.0274107
0.0144619
0.0654018
0.114309
0.150101
-0.104013
-0.0878071
-0.0699094
-0.0562371
-0.0483418
-0.0457074
-0.0474428
-0.0525055
-0.0596734
-0.0675055
-0.0742632
-0.0778374
-0.0757329
-0.0650948
-0.0429119
-0.00634195
0.0465796
0.11517
0.191355
0.258158
-0.175851
-0.114787
-0.0735781
-0.0518978
-0.0411922
-0.0375461
-0.0391861
-0.0445606
-0.0520786
-0.0600888
-0.0667185
-0.0697114
-0.0663825
-0.0535391
-0.0274438
0.0162546
0.0825315
0.177172
0.305217
0.452532
-0.355723
-0.155154
-0.0703862
-0.0427805
-0.031356
-0.0275755
-0.0296955
-0.0358116
-0.0439989
-0.0524727
-0.0593311
-0.0623142
-0.0586892
-0.0451165
-0.0172831
0.0306997
0.108266
0.233187
0.434639
0.735718
)
;

boundaryField
{
    movingWall
    {
        type            zeroGradient;
    }
    fixedWalls
    {
        type            zeroGradient;
    }
    frontAndBack
    {
        type            empty;
    }
}


// ************************************************************************* //
