/*--------------------------------*- C++ -*----------------------------------*\
  =========                 |
  \\      /  F ield         | OpenFOAM: The Open Source CFD Toolbox
   \\    /   O peration     | Website:  https://openfoam.org
    \\  /    A nd           | Version:  13
     \\/     M anipulation  |
\*---------------------------------------------------------------------------*/
FoamFile
{
    format      ascii;
    class       volScalarField;
    location    "33";
    object      p;
}
// * * * * * * * * * * * * * * * * * * * * * * * * * * * * * * * * * * * * * //

dimensions      [0 2 -2 0 0 0 0];

internalField   nonuniform List<scalar> 
400
(
2.32275e-07
-0.000572278
-0.00121587
-0.00171872
-0.00195907
-0.00188458
-0.00147038
-0.000705404
0.000401435
0.00180609
0.00341481
0.00507512
0.00659116
0.00775122
0.00837992
0.00839576
0.00785548
0.00696905
0.00604817
0.0054945
0.000570096
-2.01881e-05
-0.00056958
-0.000956911
-0.00113187
-0.00106185
-0.000725875
-0.000109137
0.000788895
0.00193958
0.00326991
0.00466024
0.00594082
0.00692994
0.00747437
0.00750192
0.00705935
0.00631899
0.00554341
0.0049728
0.00124586
0.000493129
-8.66163e-05
-0.000441267
-0.000606025
-0.000576154
-0.000337156
0.000132701
0.000849809
0.00180702
0.00295498
0.00419193
0.00536457
0.00629395
0.00681938
0.00685303
0.00642088
0.00566832
0.00480908
0.00403733
0.00174073
0.000763865
7.38006e-05
-0.000321838
-0.000537014
-0.000592607
-0.0004781
-0.000160036
0.000400147
0.00122221
0.00228183
0.00349302
0.00470186
0.00570988
0.00631953
0.00639828
0.00593364
0.0050507
0.00394855
0.00284458
0.00179559
0.000595886
-0.000227533
-0.000704691
-0.00101803
-0.00120711
-0.00125923
-0.00112287
-0.000730368
-2.76923e-05
0.000991903
0.00226376
0.00363024
0.00486141
0.00569884
0.00593248
0.00548055
0.00443564
0.00300009
0.00146225
0.00119483
-0.000202888
-0.00116312
-0.00175254
-0.00221127
-0.00259053
-0.00286912
-0.00297106
-0.00279178
-0.00223278
-0.0012439
0.000150699
0.00179304
0.00342003
0.00469041
0.00527491
0.00497208
0.00380586
0.00197919
-0.000103874
-0.000241462
-0.00179996
-0.00289209
-0.00362204
-0.00427754
-0.00491648
-0.00550491
-0.00593738
-0.0060644
-0.00572828
-0.00480675
-0.00328499
-0.00127014
0.000946893
0.00292648
0.00417006
0.00427946
0.00313574
0.000902797
-0.00185607
-0.00265174
-0.00432619
-0.00554109
-0.0064391
-0.00734692
-0.00832754
-0.0093337
-0.0102286
-0.0108111
-0.0108503
-0.0101334
-0.00853881
-0.00610686
-0.00311205
-8.62277e-05
0.00225524
0.00321285
0.00239547
-0.000177178
-0.00375277
-0.00612114
-0.00786151
-0.00918456
-0.0102716
-0.0114828
-0.0128891
-0.0144342
-0.0159527
-0.0171894
-0.0178275
-0.0175352
-0.0160426
-0.0132529
-0.00935731
-0.00493584
-0.000941223
0.00150827
0.00155477
-0.00113696
-0.00564661
-0.0106713
-0.0124234
-0.0138273
-0.0151019
-0.016642
-0.0185356
-0.0207269
-0.0230303
-0.0251402
-0.026649
-0.0270839
-0.0259774
-0.023034
-0.0182539
-0.0121676
-0.00592196
-0.00114211
0.000603207
-0.00173121
-0.00719496
-0.0162603
-0.0179651
-0.0193955
-0.020806
-0.0226413
-0.0250231
-0.0279111
-0.0311113
-0.0342773
-0.0369137
-0.0383951
-0.0380065
-0.0352839
-0.0298334
-0.022005
-0.0130062
-0.00495964
-0.00037539
-0.00151585
-0.0077205
-0.0228027
-0.0243898
-0.0257425
-0.0271482
-0.0291433
-0.0319104
-0.0354422
-0.0395492
-0.0438547
-0.0477844
-0.0505797
-0.0513769
-0.0491632
-0.0433938
-0.0339887
-0.0219775
-0.00980575
-0.00102459
0.000280215
-0.00599983
-0.0302223
-0.031586
-0.0326694
-0.0337918
-0.0356679
-0.0385797
-0.0425687
-0.0474548
-0.0528341
-0.0580624
-0.0622508
-0.0643104
-0.0630221
-0.0573318
-0.0466926
-0.0317048
-0.0148009
-0.000416905
0.00496577
2.29674e-05
-0.0385598
-0.0394892
-0.039961
-0.0403267
-0.0416348
-0.0443093
-0.0484453
-0.0538591
-0.0601057
-0.0664652
-0.0719292
-0.0752213
-0.0748701
-0.0694212
-0.0578068
-0.0400019
-0.0180231
0.00327971
0.0146987
0.0135559
-0.0481745
-0.0481568
-0.0474033
-0.0462839
-0.0464118
-0.048371
-0.0522813
-0.0579129
-0.0647392
-0.0719352
-0.0783604
-0.082561
-0.082832
-0.0773736
-0.0646451
-0.0439368
-0.0165433
0.013019
0.0329312
0.0392809
-0.0602347
-0.0579575
-0.054867
-0.0512133
-0.049427
-0.0501782
-0.0535201
-0.0590935
-0.0662199
-0.0739185
-0.0808793
-0.0854532
-0.0857068
-0.0795197
-0.0649418
-0.0406111
-0.00697869
0.032817
0.0647939
0.083677
-0.0774812
-0.069473
-0.0620873
-0.0545493
-0.0501388
-0.0493249
-0.0519043
-0.0572608
-0.064486
-0.0723848
-0.0794398
-0.0837782
-0.0832183
-0.0752828
-0.0576212
-0.0282111
0.0133526
0.0666612
0.115752
0.154807
-0.108925
-0.0850399
-0.0697732
-0.0563914
-0.0485409
-0.045881
-0.0476241
-0.0527149
-0.059917
-0.0677769
-0.0745522
-0.0781399
-0.0761042
-0.0655424
-0.0436431
-0.00744492
0.0447433
0.114933
0.188078
0.263281
-0.168693
-0.100746
-0.073093
-0.052288
-0.0413101
-0.0376996
-0.0394418
-0.0448653
-0.0524156
-0.0604468
-0.0670738
-0.0700477
-0.0666873
-0.0537882
-0.0278897
0.01541
0.0800717
0.17276
0.285855
0.445986
-0.402754
-0.139031
-0.073459
-0.04473
-0.0305716
-0.0266174
-0.0290854
-0.0353733
-0.0436539
-0.0522072
-0.0591238
-0.0621454
-0.0586173
-0.0452139
-0.0174507
0.0310788
0.108496
0.236657
0.427487
0.79368
)
;

boundaryField
{
    movingWall
    {
        type            zeroGradient;
    }
    fixedWalls
    {
        type            zeroGradient;
    }
    frontAndBack
    {
        type            empty;
    }
}


// ************************************************************************* //
