/*--------------------------------*- C++ -*----------------------------------*\
  =========                 |
  \\      /  F ield         | OpenFOAM: The Open Source CFD Toolbox
   \\    /   O peration     | Website:  https://openfoam.org
    \\  /    A nd           | Version:  13
     \\/     M anipulation  |
\*---------------------------------------------------------------------------*/
FoamFile
{
    format      ascii;
    class       volVectorField;
    location    "33";
    object      U;
}
// * * * * * * * * * * * * * * * * * * * * * * * * * * * * * * * * * * * * * //

dimensions      [0 1 -1 0 0 0 0];

internalField   nonuniform List<vector> 
400
(
(0.000179243 -0.000183031 0)
(-0.000142317 3.27742e-05 0)
(-0.00152946 0.000269137 0)
(-0.00376484 0.000419264 0)
(-0.0065037 0.000498459 0)
(-0.0094468 0.000528255 0)
(-0.012346 0.000518449 0)
(-0.0149699 0.000468118 0)
(-0.0170807 0.000370698 0)
(-0.0184343 0.000220969 0)
(-0.0188079 2.22109e-05 0)
(-0.0180478 -0.000208353 0)
(-0.0161284 -0.000437149 0)
(-0.0132028 -0.000618119 0)
(-0.00962281 -0.000703104 0)
(-0.00590931 -0.000657347 0)
(-0.00266314 -0.000474391 0)
(-0.000422557 -0.000184203 0)
(0.000527194 0.00013294 0)
(0.00030567 0.000298758 0)
(-4.93832e-05 0.000141122 0)
(-0.00206333 0.00192031 0)
(-0.00638006 0.00373123 0)
(-0.0124752 0.00498286 0)
(-0.0195985 0.00564099 0)
(-0.0270844 0.00578145 0)
(-0.034333 0.00545497 0)
(-0.0407681 0.00466858 0)
(-0.0458161 0.00341304 0)
(-0.0489244 0.00170755 0)
(-0.0496247 -0.000356598 0)
(-0.0476284 -0.00258782 0)
(-0.0429344 -0.00469284 0)
(-0.0359156 -0.00631254 0)
(-0.0273469 -0.00709711 0)
(-0.0183434 -0.00681006 0)
(-0.010184 -0.00543388 0)
(-0.0040315 -0.00324536 0)
(-0.000586878 -0.000868773 0)
(0.000216904 0.000576096 0)
(-0.000352168 0.00170779 0)
(-0.00444269 0.00641245 0)
(-0.0117565 0.0105814 0)
(-0.0213929 0.0134001 0)
(-0.0322678 0.01482 0)
(-0.0434769 0.0149678 0)
(-0.0541893 0.013933 0)
(-0.0635969 0.011739 0)
(-0.0709057 0.00839928 0)
(-0.0753706 0.00400719 0)
(-0.076377 -0.0011809 0)
(-0.0735543 -0.00669515 0)
(-0.0669009 -0.0118576 0)
(-0.0568886 -0.0158596 0)
(-0.0445097 -0.0179174 0)
(-0.031222 -0.0174924 0)
(-0.018753 -0.0145244 0)
(-0.00875903 -0.00960531 0)
(-0.00241805 -0.00405392 0)
(3.1217e-05 6.04288e-06 0)
(-0.000626418 0.0045552 0)
(-0.00673856 0.0135485 0)
(-0.016927 0.0207285 0)
(-0.0298472 0.0253939 0)
(-0.0440786 0.0276085 0)
(-0.058538 0.0275896 0)
(-0.0722498 0.0254765 0)
(-0.0842658 0.0213164 0)
(-0.0936555 0.0151609 0)
(-0.0995438 0.00720212 0)
(-0.101192 -0.00210262 0)
(-0.098117 -0.011958 0)
(-0.0902223 -0.0212356 0)
(-0.077936 -0.0285835 0)
(-0.0623052 -0.0326592 0)
(-0.0450012 -0.0324778 0)
(-0.0281585 -0.0278164 0)
(-0.0140116 -0.019541 0)
(-0.00441623 -0.00971928 0)
(-0.00012854 -0.00153317 0)
(-0.00086267 0.0085685 0)
(-0.00879391 0.0231051 0)
(-0.0215952 0.0338488 0)
(-0.0374855 0.0405344 0)
(-0.054729 0.0435091 0)
(-0.0721077 0.0431558 0)
(-0.0885667 0.0396902 0)
(-0.10309 0.033189 0)
(-0.11467 0.0237375 0)
(-0.122336 0.0116158 0)
(-0.125213 -0.00253502 0)
(-0.122636 -0.0176082 0)
(-0.114294 -0.0320152 0)
(-0.100408 -0.0437987 0)
(-0.0819149 -0.050915 0)
(-0.0605869 -0.0517136 0)
(-0.0389725 -0.045563 0)
(-0.0200524 -0.033434 0)
(-0.00664943 -0.0181433 0)
(-0.000274412 -0.004098 0)
(-0.00105771 0.0135906 0)
(-0.0105318 0.0347874 0)
(-0.0255774 0.0495987 0)
(-0.0440362 0.0584658 0)
(-0.0639078 0.0621908 0)
(-0.0838866 0.0614128 0)
(-0.102896 0.0564604 0)
(-0.119912 0.0474419 0)
(-0.133905 0.0344522 0)
(-0.143829 0.0178118 0)
(-0.148662 -0.00172084 0)
(-0.147491 -0.0227953 0)
(-0.139667 -0.0434032 0)
(-0.12503 -0.0609446 0)
(-0.104207 -0.0725119 0)
(-0.0789004 -0.0754789 0)
(-0.0520235 -0.0684025 0)
(-0.0274667 -0.0520228 0)
(-0.00939924 -0.0298514 0)
(-0.000449041 -0.00783791 0)
(-0.00120444 0.0194348 0)
(-0.011881 0.0482225 0)
(-0.0287025 0.0675428 0)
(-0.0492178 0.0787581 0)
(-0.0712302 0.0832785 0)
(-0.093397 0.0820913 0)
(-0.114673 0.0756796 0)
(-0.134086 0.0641824 0)
(-0.150636 0.0476659 0)
(-0.163246 0.026415 0)
(-0.170752 0.00119733 0)
(-0.171967 -0.0265153 0)
(-0.165813 -0.0543928 0)
(-0.151585 -0.0792094 0)
(-0.12936 -0.0970522 0)
(-0.100495 -0.103951 0)
(-0.0680618 -0.0970711 0)
(-0.036919 -0.0763248 0)
(-0.0130271 -0.0456934 0)
(-0.000703626 -0.0130814 0)
(-0.00129448 0.0258773 0)
(-0.0127719 0.0629527 0)
(-0.0308019 0.0871311 0)
(-0.0527323 0.10085 0)
(-0.0762417 0.106254 0)
(-0.0999978 0.104767 0)
(-0.123038 0.0970717 0)
(-0.144499 0.0833413 0)
(-0.163479 0.0635706 0)
(-0.178933 0.037919 0)
(-0.189623 0.00702916 0)
(-0.194117 -0.0276755 0)
(-0.190889 -0.0637132 0)
(-0.178576 -0.0973475 0)
(-0.156454 -0.123614 0)
(-0.125142 -0.136855 0)
(-0.0874461 -0.132111 0)
(-0.0489904 -0.107498 0)
(-0.017929 -0.0668419 0)
(-0.00110108 -0.0203613 0)
(-0.00132314 0.0326605 0)
(-0.0131581 0.0784424 0)
(-0.0317457 0.107697 0)
(-0.0543155 0.124023 0)
(-0.0784859 0.130395 0)
(-0.102975 0.12876 0)
(-0.126948 0.120054 0)
(-0.149712 0.104499 0)
(-0.17054 0.0819876 0)
(-0.188523 0.0524719 0)
(-0.202462 0.0163299 0)
(-0.210802 -0.0252602 0)
(-0.211658 -0.0699119 0)
(-0.202997 -0.113627 0)
(-0.183101 -0.150528 0)
(-0.151407 -0.173088 0)
(-0.109776 -0.173458 0)
(-0.0639901 -0.146564 0)
(-0.0245067 -0.0947148 0)
(-0.00172422 -0.0304282 0)
(-0.00129676 0.0395144 0)
(-0.0130545 0.0941102 0)
(-0.0315092 0.128478 0)
(-0.0538321 0.147391 0)
(-0.0776306 0.154738 0)
(-0.101708 0.153067 0)
(-0.125397 0.143636 0)
(-0.148237 0.12675 0)
(-0.169759 0.102195 0)
(-0.189315 0.0696673 0)
(-0.205911 0.0291648 0)
(-0.218074 -0.0185786 0)
(-0.223766 -0.0715692 0)
(-0.220432 -0.125942 0)
(-0.205318 -0.175298 0)
(-0.176302 -0.210385 0)
(-0.133476 -0.219917 0)
(-0.0816782 -0.193933 0)
(-0.0331126 -0.130788 0)
(-0.00268671 -0.0442594 0)
(-0.00124265 0.0462039 0)
(-0.0125892 0.109396 0)
(-0.0302624 0.148664 0)
(-0.0513988 0.169934 0)
(-0.0736295 0.178079 0)
(-0.0958813 0.176344 0)
(-0.117703 0.166384 0)
(-0.138918 0.148642 0)
(-0.159403 0.122836 0)
(-0.178892 0.0883981 0)
(-0.196781 0.0448907 0)
(-0.211926 -0.00755017 0)
(-0.222456 -0.0676459 0)
(-0.225614 -0.132139 0)
(-0.217812 -0.194771 0)
(-0.195233 -0.245184 0)
(-0.155455 -0.268653 0)
(-0.100887 -0.248744 0)
(-0.0439226 -0.176232 0)
(-0.00414324 -0.063049 0)
(-0.00122257 0.0526105 0)
(-0.0120683 0.123873 0)
(-0.0284705 0.167488 0)
(-0.0475119 0.19055 0)
(-0.0668801 0.199026 0)
(-0.0856942 0.196959 0)
(-0.103786 0.18648 0)
(-0.121325 0.168243 0)
(-0.138597 0.141954 0)
(-0.155809 0.106836 0)
(-0.172897 0.0620263 0)
(-0.189304 0.00699113 0)
(-0.203662 -0.05792 0)
(-0.213466 -0.130568 0)
(-0.214804 -0.205677 0)
(-0.202435 -0.2729 0)
(-0.171043 -0.314943 0)
(-0.119129 -0.308123 0)
(-0.0566884 -0.231301 0)
(-0.006292 -0.0881487 0)
(-0.00135457 0.0588599 0)
(-0.0120602 0.137404 0)
(-0.0269953 0.18434 0)
(-0.0431425 0.20814 0)
(-0.0583128 0.216073 0)
(-0.0719599 0.213092 0)
(-0.0843148 0.201864 0)
(-0.095965 0.183308 0)
(-0.107643 0.157186 0)
(-0.120071 0.122593 0)
(-0.133794 0.0783241 0)
(-0.148975 0.0232258 0)
(-0.165064 -0.0433434 0)
(-0.180329 -0.120729 0)
(-0.191243 -0.205469 0)
(-0.191908 -0.288711 0)
(-0.174419 -0.352471 0)
(-0.132396 -0.366641 0)
(-0.0703489 -0.29443 0)
(-0.00935585 -0.120885 0)
(-0.00185359 0.0655208 0)
(-0.0135148 0.150338 0)
(-0.0271805 0.198866 0)
(-0.0397398 0.221653 0)
(-0.0493114 0.227656 0)
(-0.0559634 0.222838 0)
(-0.0605189 0.2104 0)
(-0.0640701 0.191517 0)
(-0.0678122 0.166041 0)
(-0.0729521 0.133017 0)
(-0.0806143 0.0910349 0)
(-0.0916954 0.0384783 0)
(-0.106601 -0.0261714 0)
(-0.124776 -0.103777 0)
(-0.143879 -0.193249 0)
(-0.158547 -0.288742 0)
(-0.159424 -0.374312 0)
(-0.135306 -0.416368 0)
(-0.0825463 -0.361194 0)
(-0.0134916 -0.162093 0)
(-0.00309138 0.0738976 0)
(-0.017911 0.163712 0)
(-0.0308341 0.21097 0)
(-0.038963 0.230007 0)
(-0.0412125 0.232094 0)
(-0.0387723 0.224215 0)
(-0.0333381 0.209957 0)
(-0.0266048 0.190634 0)
(-0.020216 0.166145 0)
(-0.0157834 0.135528 0)
(-0.0148913 0.09729 0)
(-0.0190533 0.0495807 0)
(-0.029576 -0.00967767 0)
(-0.0472243 -0.0825538 0)
(-0.071455 -0.170341 0)
(-0.0987763 -0.271244 0)
(-0.120311 -0.374396 0)
(-0.121452 -0.447767 0)
(-0.0891169 -0.423634 0)
(-0.0184807 -0.211312 0)
(-0.00558409 0.0865259 0)
(-0.0272431 0.179337 0)
(-0.0396713 0.220454 0)
(-0.0414511 0.231633 0)
(-0.0335394 0.227215 0)
(-0.0190995 0.214904 0)
(-0.00102786 0.198262 0)
(0.0183189 0.178465 0)
(0.0369147 0.155317 0)
(0.052875 0.127832 0)
(0.0643277 0.0945255 0)
(0.0693424 0.0535397 0)
(0.0659245 0.00263966 0)
(0.0521436 -0.0608498 0)
(0.026601 -0.139968 0)
(-0.0100754 -0.237047 0)
(-0.0518098 -0.348758 0)
(-0.0835131 -0.451166 0)
(-0.0836028 -0.47071 0)
(-0.0231201 -0.266416 0)
(-0.00989482 0.10874 0)
(-0.0430589 0.199508 0)
(-0.0524044 0.22555 0)
(-0.0420968 0.222995 0)
(-0.0183051 0.209232 0)
(0.0127213 0.191482 0)
(0.0468201 0.17243 0)
(0.0811672 0.152629 0)
(0.1136 0.131555 0)
(0.142214 0.108129 0)
(0.165099 0.080942 0)
(0.180169 0.0483134 0)
(0.185042 0.00822098 0)
(0.177003 -0.0419464 0)
(0.153094 -0.105871 0)
(0.110941 -0.188834 0)
(0.0518615 -0.295783 0)
(-0.0128461 -0.417551 0)
(-0.0569248 -0.488741 0)
(-0.0246751 -0.323845 0)
(-0.0177961 0.151733 0)
(-0.0613155 0.223653 0)
(-0.0523532 0.217608 0)
(-0.0145437 0.194813 0)
(0.0351176 0.170888 0)
(0.088201 0.148891 0)
(0.140737 0.129214 0)
(0.190451 0.11126 0)
(0.235754 0.0939791 0)
(0.275244 0.0761806 0)
(0.307388 0.0566174 0)
(0.330311 0.0339511 0)
(0.341626 0.0066527 0)
(0.338326 -0.0272688 0)
(0.316592 -0.0709731 0)
(0.271822 -0.130387 0)
(0.199814 -0.216403 0)
(0.102758 -0.338298 0)
(0.00422034 -0.456728 0)
(-0.0159923 -0.369237 0)
(-0.024199 0.208321 0)
(-0.0378756 0.230413 0)
(0.0372987 0.176545 0)
(0.125033 0.136815 0)
(0.205724 0.108982 0)
(0.277806 0.0881201 0)
(0.341959 0.072028 0)
(0.398486 0.0591136 0)
(0.447448 0.0479897 0)
(0.488615 0.0375216 0)
(0.52133 0.0267547 0)
(0.544349 0.0148331 0)
(0.555778 0.00087734 0)
(0.552952 -0.0161879 0)
(0.53204 -0.0381998 0)
(0.487562 -0.0690927 0)
(0.411026 -0.11908 0)
(0.290802 -0.209354 0)
(0.13308 -0.338292 0)
(0.0387391 -0.340347 0)
(0.2419 0.109149 0)
(0.313504 0.0971408 0)
(0.444391 0.0569778 0)
(0.549689 0.0351039 0)
(0.624078 0.023724 0)
(0.679559 0.0166901 0)
(0.72337 0.0119629 0)
(0.758623 0.00868448 0)
(0.786877 0.00625596 0)
(0.808935 0.00424251 0)
(0.824976 0.00234679 0)
(0.834624 0.000361253 0)
(0.837009 -0.0018912 0)
(0.830702 -0.00457655 0)
(0.813388 -0.0080209 0)
(0.781164 -0.0128892 0)
(0.725729 -0.0212453 0)
(0.629887 -0.0381092 0)
(0.459272 -0.0855675 0)
(0.30489 -0.1257 0)
)
;

boundaryField
{
    movingWall
    {
        type            fixedValue;
        value           uniform (1 0 0);
    }
    fixedWalls
    {
        type            fixedValue;
        value           uniform (0 0 0);
    }
    frontAndBack
    {
        type            empty;
    }
}


// ************************************************************************* //
