/*--------------------------------*- C++ -*----------------------------------*\
  =========                 |
  \\      /  F ield         | OpenFOAM: The Open Source CFD Toolbox
   \\    /   O peration     | Website:  https://openfoam.org
    \\  /    A nd           | Version:  13
     \\/     M anipulation  |
\*---------------------------------------------------------------------------*/
FoamFile
{
    format      ascii;
    class       volVectorField;
    location    "33";
    object      U_0;
}
// * * * * * * * * * * * * * * * * * * * * * * * * * * * * * * * * * * * * * //

dimensions      [0 1 -1 0 0 0 0];

internalField   nonuniform List<vector> 
400
(
(0.000178462 -0.000182225 0)
(-0.000143302 3.3371e-05 0)
(-0.00152848 0.000269311 0)
(-0.00376006 0.000419221 0)
(-0.006494 0.000498266 0)
(-0.00943159 0.000527916 0)
(-0.0123251 0.000517969 0)
(-0.0149438 0.00046754 0)
(-0.0170502 0.000370114 0)
(-0.0184013 0.000220514 0)
(-0.0187745 2.2029e-05 0)
(-0.0180168 -0.000208161 0)
(-0.0161024 -0.000436579 0)
(-0.0131838 -0.000617293 0)
(-0.00961158 -0.00070226 0)
(-0.00590518 -0.000656769 0)
(-0.00266409 -0.000474293 0)
(-0.000425742 -0.00018466 0)
(0.000524396 0.00013203 0)
(0.000304792 0.000297897 0)
(-4.98548e-05 0.000142076 0)
(-0.0020599 0.00191766 0)
(-0.00636856 0.00372498 0)
(-0.0124518 0.00497396 0)
(-0.0195611 0.00563053 0)
(-0.0270322 0.00577037 0)
(-0.0342665 0.00544424 0)
(-0.040689 0.00465933 0)
(-0.0457277 0.00340654 0)
(-0.0488313 0.00170501 0)
(-0.0495325 -0.000354331 0)
(-0.0475431 -0.00258057 0)
(-0.0428615 -0.00468134 0)
(-0.035859 -0.00629848 0)
(-0.0273084 -0.0070829 0)
(-0.0183219 -0.00679825 0)
(-0.0101758 -0.00542645 0)
(-0.00403121 -0.00324302 0)
(-0.000589125 -0.000870401 0)
(0.000215873 0.000573225 0)
(-0.000351934 0.00170583 0)
(-0.00443332 0.00640099 0)
(-0.0117321 0.0105616 0)
(-0.0213484 0.0133745 0)
(-0.032201 0.0147914 0)
(-0.0433874 0.0149386 0)
(-0.0540786 0.0139058 0)
(-0.0634683 0.0117166 0)
(-0.0707645 0.00838464 0)
(-0.0752237 0.00400277 0)
(-0.0762324 -0.00117355 0)
(-0.0734202 -0.00667608 0)
(-0.0667846 -0.0118288 0)
(-0.0567956 -0.0158249 0)
(-0.0444426 -0.0178821 0)
(-0.03118 -0.017462 0)
(-0.0187318 -0.0145034 0)
(-0.00875216 -0.00959553 0)
(-0.00241795 -0.00405357 0)
(3.03498e-05 2.01653e-06 0)
(-0.000625506 0.00454673 0)
(-0.00672301 0.0135215 0)
(-0.0168897 0.0206868 0)
(-0.0297822 0.0253429 0)
(-0.0439842 0.0275533 0)
(-0.0584146 0.0275348 0)
(-0.0721001 0.0254268 0)
(-0.0840944 0.0212768 0)
(-0.0934694 0.015136 0)
(-0.0993512 0.00719596 0)
(-0.101003 -0.00208796 0)
(-0.0979399 -0.011923 0)
(-0.0900664 -0.0211837 0)
(-0.0778078 -0.0285211 0)
(-0.0622087 -0.0325948 0)
(-0.0449366 -0.0324207 0)
(-0.0281221 -0.0277743 0)
(-0.0139963 -0.0195178 0)
(-0.00441289 -0.00971299 0)
(-0.000129271 -0.0015369 0)
(-0.000861169 0.00855023 0)
(-0.00877316 0.0230566 0)
(-0.0215471 0.0337785 0)
(-0.0374039 0.0404515 0)
(-0.0546128 0.0434216 0)
(-0.0719581 0.0430707 0)
(-0.0883874 0.0396145 0)
(-0.102886 0.0331297 0)
(-0.114451 0.0237011 0)
(-0.122109 0.0116076 0)
(-0.124988 -0.00251254 0)
(-0.122424 -0.0175559 0)
(-0.114104 -0.0319378 0)
(-0.100247 -0.0437048 0)
(-0.0817896 -0.0508164 0)
(-0.0604988 -0.0516233 0)
(-0.0389194 -0.0454928 0)
(-0.0200277 -0.033391 0)
(-0.00664241 -0.0181266 0)
(-0.00027504 -0.00409966 0)
(-0.00105581 0.01356 0)
(-0.0105077 0.0347132 0)
(-0.0255227 0.0494951 0)
(-0.0439446 0.0583466 0)
(-0.0637789 0.0620672 0)
(-0.0837223 0.0612944 0)
(-0.102701 0.0563564 0)
(-0.119692 0.0473612 0)
(-0.133667 0.0344029 0)
(-0.143582 0.0178002 0)
(-0.148416 -0.00169181 0)
(-0.147255 -0.0227265 0)
(-0.139451 -0.0433004 0)
(-0.124842 -0.0608179 0)
(-0.104055 -0.0723757 0)
(-0.0787896 -0.0753501 0)
(-0.0519532 -0.0682976 0)
(-0.0274318 -0.0519533 0)
(-0.00938814 -0.0298193 0)
(-0.000449543 -0.00783553 0)
(-0.00120242 0.0193907 0)
(-0.0118563 0.0481205 0)
(-0.0286466 0.0674038 0)
(-0.049125 0.078601 0)
(-0.0711003 0.0831177 0)
(-0.0932324 0.0819389 0)
(-0.114478 0.0755468 0)
(-0.133867 0.0640798 0)
(-0.150399 0.0476028 0)
(-0.162998 0.0263982 0)
(-0.170504 0.00123039 0)
(-0.171725 -0.0264332 0)
(-0.165587 -0.0542674 0)
(-0.151383 -0.0790516 0)
(-0.129191 -0.0968781 0)
(-0.100365 -0.103781 0)
(-0.0679756 -0.096926 0)
(-0.0368737 -0.0762224 0)
(-0.0130115 -0.0456408 0)
(-0.000703916 -0.0130728 0)
(-0.00129269 0.0258202 0)
(-0.0127496 0.0628238 0)
(-0.0307513 0.0869581 0)
(-0.0526481 0.100657 0)
(-0.0761241 0.106058 0)
(-0.0998492 0.104583 0)
(-0.122862 0.096912 0)
(-0.144302 0.0832179 0)
(-0.163265 0.0634935 0)
(-0.17871 0.0378956 0)
(-0.189397 0.00706317 0)
(-0.193893 -0.0275847 0)
(-0.190674 -0.063571 0)
(-0.178378 -0.0971642 0)
(-0.156281 -0.123406 0)
(-0.125004 -0.136644 0)
(-0.0873485 -0.131923 0)
(-0.0489359 -0.107358 0)
(-0.0179088 -0.0667637 0)
(-0.001101 -0.0203441 0)
(-0.00132194 0.0325924 0)
(-0.0131413 0.0782908 0)
(-0.0317068 0.107495 0)
(-0.05425 0.123798 0)
(-0.0783941 0.130169 0)
(-0.102859 0.128549 0)
(-0.126812 0.119872 0)
(-0.14956 0.104359 0)
(-0.170376 0.0818988 0)
(-0.188351 0.0524419 0)
(-0.202287 0.0163625 0)
(-0.210626 -0.0251658 0)
(-0.211485 -0.0697604 0)
(-0.202831 -0.113428 0)
(-0.182948 -0.150296 0)
(-0.151275 -0.172844 0)
(-0.109676 -0.17323 0)
(-0.0639299 -0.146384 0)
(-0.0244823 -0.0946073 0)
(-0.00172353 -0.0303999 0)
(-0.00129644 0.0394392 0)
(-0.013046 0.0939429 0)
(-0.0314877 0.128255 0)
(-0.0537943 0.147145 0)
(-0.0775767 0.15449 0)
(-0.10164 0.152838 0)
(-0.125318 0.14344 0)
(-0.148149 0.126599 0)
(-0.169667 0.1021 0)
(-0.18922 0.0696335 0)
(-0.205815 0.0291954 0)
(-0.217976 -0.0184848 0)
(-0.223665 -0.0714166 0)
(-0.220327 -0.125739 0)
(-0.205212 -0.175055 0)
(-0.176199 -0.210121 0)
(-0.133389 -0.21966 0)
(-0.081619 -0.193717 0)
(-0.0330855 -0.13065 0)
(-0.00268515 -0.0442178 0)
(-0.00124335 0.0461269 0)
(-0.0125908 0.109223 0)
(-0.0302623 0.148432 0)
(-0.0513953 0.169677 0)
(-0.0736224 0.177822 0)
(-0.0958717 0.176108 0)
(-0.117693 0.166183 0)
(-0.13891 0.14849 0)
(-0.159399 0.122741 0)
(-0.178892 0.0883654 0)
(-0.196784 0.0449212 0)
(-0.211927 -0.00745903 0)
(-0.22245 -0.0674991 0)
(-0.225596 -0.131944 0)
(-0.217778 -0.194535 0)
(-0.195185 -0.24492 0)
(-0.155399 -0.268384 0)
(-0.100839 -0.248504 0)
(-0.0438961 -0.176067 0)
(-0.00414059 -0.0629928 0)
(-0.00122429 0.0525374 0)
(-0.0120806 0.123704 0)
(-0.0284936 0.16726 0)
(-0.0475456 0.190296 0)
(-0.0669238 0.198773 0)
(-0.0857481 0.196728 0)
(-0.103851 0.186286 0)
(-0.121402 0.168099 0)
(-0.138685 0.141868 0)
(-0.155907 0.106811 0)
(-0.173002 0.0620603 0)
(-0.189409 0.00707993 0)
(-0.20376 -0.0577831 0)
(-0.213547 -0.13039 0)
(-0.214859 -0.205464 0)
(-0.202457 -0.272658 0)
(-0.171036 -0.314685 0)
(-0.119105 -0.307878 0)
(-0.0566676 -0.231117 0)
(-0.00628815 -0.0880787 0)
(-0.00135713 0.0587966 0)
(-0.0120825 0.137251 0)
(-0.0270405 0.18413 0)
(-0.0432121 0.207903 0)
(-0.0584056 0.215837 0)
(-0.0720746 0.212877 0)
(-0.0844501 0.201687 0)
(-0.0961194 0.18318 0)
(-0.107815 0.157115 0)
(-0.120255 0.122579 0)
(-0.133987 0.0783648 0)
(-0.14917 0.0233135 0)
(-0.165251 -0.0432177 0)
(-0.180498 -0.120573 0)
(-0.191382 -0.205288 0)
(-0.192005 -0.288507 0)
(-0.17447 -0.352247 0)
(-0.132407 -0.366415 0)
(-0.07034 -0.294245 0)
(-0.00935098 -0.120804 0)
(-0.00185668 0.0654725 0)
(-0.0135451 0.150213 0)
(-0.0272439 0.198686 0)
(-0.0398395 0.221446 0)
(-0.0494454 0.227448 0)
(-0.0561286 0.222649 0)
(-0.0607114 0.210246 0)
(-0.0642854 0.19141 0)
(-0.0680451 0.165986 0)
(-0.0731971 0.133016 0)
(-0.0808651 0.0910817 0)
(-0.0919456 0.0385645 0)
(-0.106843 -0.0260568 0)
(-0.125 -0.103644 0)
(-0.144075 -0.193104 0)
(-0.158702 -0.288584 0)
(-0.159527 -0.374138 0)
(-0.135355 -0.416182 0)
(-0.0825546 -0.361027 0)
(-0.0134867 -0.162009 0)
(-0.00309453 0.0738678 0)
(-0.0179456 0.16362 0)
(-0.0309084 0.210831 0)
(-0.0390818 0.229841 0)
(-0.0413735 0.231924 0)
(-0.0389705 0.22406 0)
(-0.0335669 0.209831 0)
(-0.0268564 0.190548 0)
(-0.0204825 0.166104 0)
(-0.0160569 0.135534 0)
(-0.0151645 0.0973381 0)
(-0.0193202 0.0496618 0)
(-0.0298311 -0.00957526 0)
(-0.0474623 -0.0824416 0)
(-0.0716689 -0.170227 0)
(-0.0989559 -0.27113 0)
(-0.120443 -0.374275 0)
(-0.121529 -0.447635 0)
(-0.0891436 -0.423504 0)
(-0.018478 -0.211234 0)
(-0.00558655 0.0865155 0)
(-0.0272763 0.179283 0)
(-0.0397453 0.22036 0)
(-0.0415723 0.231513 0)
(-0.0337059 0.227087 0)
(-0.0193055 0.214783 0)
(-0.00126498 0.198163 0)
(0.0180606 0.178397 0)
(0.0366453 0.155286 0)
(0.0526042 0.127838 0)
(0.0640636 0.0945672 0)
(0.0690909 0.053609 0)
(0.0656899 0.00272615 0)
(0.0519281 -0.0607578 0)
(0.0264069 -0.13988 0)
(-0.0102433 -0.236968 0)
(-0.0519429 -0.348684 0)
(-0.0836008 -0.451088 0)
(-0.0836422 -0.470628 0)
(-0.0231217 -0.266355 0)
(-0.00989529 0.108746 0)
(-0.0430828 0.199488 0)
(-0.0524628 0.225501 0)
(-0.0421976 0.222921 0)
(-0.0184485 0.209146 0)
(0.0125398 0.191396 0)
(0.0466084 0.172356 0)
(0.0809351 0.152575 0)
(0.113358 0.131528 0)
(0.141972 0.108131 0)
(0.164867 0.0809714 0)
(0.179952 0.0483653 0)
(0.184846 0.00828691 0)
(0.176829 -0.0418765 0)
(0.152943 -0.105807 0)
(0.110811 -0.188782 0)
(0.0517539 -0.295743 0)
(-0.0129235 -0.417514 0)
(-0.0569653 -0.488699 0)
(-0.0246798 -0.323807 0)
(-0.0177931 0.151746 0)
(-0.0613224 0.223656 0)
(-0.0523807 0.217591 0)
(-0.0146012 0.194777 0)
(0.0350261 0.170839 0)
(0.0880758 0.148837 0)
(0.140583 0.129165 0)
(0.190275 0.111222 0)
(0.235565 0.0939576 0)
(0.275053 0.0761783 0)
(0.307203 0.0566342 0)
(0.33014 0.0339838 0)
(0.341475 0.00669543 0)
(0.338199 -0.0272237 0)
(0.316488 -0.070933 0)
(0.27174 -0.130358 0)
(0.199748 -0.216385 0)
(0.102709 -0.338286 0)
(0.00419058 -0.456716 0)
(-0.0159992 -0.36922 0)
(-0.0241942 0.208332 0)
(-0.0378678 0.230424 0)
(0.0373024 0.176546 0)
(0.125023 0.136803 0)
(0.205693 0.108961 0)
(0.277749 0.0880944 0)
(0.341877 0.0720029 0)
(0.398382 0.0590936 0)
(0.447328 0.0479779 0)
(0.488487 0.0375207 0)
(0.521204 0.0267643 0)
(0.544235 0.0148511 0)
(0.555682 0.000900065 0)
(0.552877 -0.0161648 0)
(0.531986 -0.0381804 0)
(0.487525 -0.0690799 0)
(0.411002 -0.119075 0)
(0.290784 -0.209354 0)
(0.13307 -0.338293 0)
(0.0387309 -0.340343 0)
(0.241903 0.109153 0)
(0.313514 0.0971457 0)
(0.444405 0.0569801 0)
(0.549701 0.0351034 0)
(0.624079 0.0237214 0)
(0.679545 0.0166867 0)
(0.723341 0.0119599 0)
(0.758581 0.00868283 0)
(0.786827 0.00625633 0)
(0.808883 0.00424485 0)
(0.824928 0.00235041 0)
(0.834585 0.000365391 0)
(0.836982 -0.00188744 0)
(0.830688 -0.00457358 0)
(0.813386 -0.00801923 0)
(0.78117 -0.01289 0)
(0.725736 -0.0212486 0)
(0.629892 -0.0381129 0)
(0.459273 -0.0855719 0)
(0.30489 -0.125701 0)
)
;

boundaryField
{
    movingWall
    {
        type            calculated;
        value           uniform (1 0 0);
    }
    fixedWalls
    {
        type            calculated;
        value           uniform (0 0 0);
    }
    frontAndBack
    {
        type            empty;
    }
}


// ************************************************************************* //
