/*--------------------------------*- C++ -*----------------------------------*\
  =========                 |
  \\      /  F ield         | OpenFOAM: The Open Source CFD Toolbox
   \\    /   O peration     | Website:  https://openfoam.org
    \\  /    A nd           | Version:  13
     \\/     M anipulation  |
\*---------------------------------------------------------------------------*/
FoamFile
{
    format      ascii;
    class       volScalarField;
    location    "30";
    object      p;
}
// * * * * * * * * * * * * * * * * * * * * * * * * * * * * * * * * * * * * * //

dimensions      [0 2 -2 0 0 0 0];

internalField   nonuniform List<scalar> 
400
(
-1.74536e-09
-0.000518955
-0.00114906
-0.00163259
-0.00185121
-0.00175663
-0.00132572
-0.000548967
0.000563374
0.00196683
0.00356819
0.0052194
0.00672807
0.00788822
0.00852915
0.00857069
0.00806608
0.00721634
0.0063462
0.00579954
0.000525532
-1.13173e-05
-0.000565824
-0.000950919
-0.00111235
-0.00102392
-0.000665907
-2.47741e-05
0.000898383
0.00207369
0.00342815
0.00483883
0.00613989
0.00714998
0.00771657
0.00776677
0.0073449
0.00661805
0.0058421
0.00528554
0.00118024
0.000506579
-7.936e-05
-0.000431385
-0.0005781
-0.000526998
-0.00026434
0.000230652
0.000972461
0.00195223
0.00312006
0.00437379
0.00556196
0.0065076
0.00705218
0.00710876
0.0067018
0.00596712
0.00510697
0.00438126
0.00164769
0.0007784
7.85116e-05
-0.00031577
-0.000507689
-0.000537164
-0.000394449
-4.7108e-05
0.000540864
0.00138684
0.00246553
0.00369057
0.00491085
0.00593079
0.00655654
0.00665838
0.006223
0.0053594
0.00425213
0.00322801
0.00167883
0.000611009
-0.000228872
-0.000708182
-0.000993734
-0.00115056
-0.00116709
-0.0009933
-0.000565027
0.00016838
0.00121258
0.0025007
0.00387866
0.00511926
0.00596879
0.00622222
0.00579864
0.00476815
0.00331783
0.00190027
0.00106785
-0.000177775
-0.00115976
-0.00175261
-0.00217726
-0.00251611
-0.00274966
-0.00280412
-0.00257951
-0.00198153
-0.000960685
0.000450181
0.0021021
0.00373335
0.00500834
0.00560577
0.00532786
0.00416853
0.00231541
0.000406586
-0.000358891
-0.00175124
-0.00286942
-0.00360171
-0.00421508
-0.0048035
-0.00533536
-0.00570833
-0.00577863
-0.00539447
-0.00444096
-0.00289565
-0.000873316
0.00134051
0.00331333
0.0045585
0.00468568
0.00353581
0.00125922
-0.00125218
-0.00273665
-0.0042384
-0.00548317
-0.00638054
-0.00723704
-0.00815545
-0.00909152
-0.00991261
-0.0104248
-0.0104042
-0.00964519
-0.00802705
-0.00559069
-0.00260848
0.000395647
0.00272279
0.00368664
0.00284086
0.000197337
-0.00302998
-0.00615093
-0.00772008
-0.00907664
-0.010159
-0.0113094
-0.0126412
-0.0141016
-0.0155307
-0.0166821
-0.0172474
-0.0169023
-0.0153825
-0.0125901
-0.00871655
-0.00433309
-0.000371413
0.0020695
0.00205273
-0.000752122
-0.00477494
-0.010628
-0.0122182
-0.0136596
-0.014926
-0.0163971
-0.0182046
-0.0202972
-0.0224957
-0.024505
-0.0259267
-0.0262967
-0.0251621
-0.0222138
-0.017462
-0.0114269
-0.00523079
-0.000473935
0.00115751
-0.00135164
-0.00614304
-0.0161342
-0.0176938
-0.0191671
-0.0205694
-0.0223306
-0.0246178
-0.0273957
-0.0304786
-0.0335318
-0.0360708
-0.0374835
-0.0370984
-0.0343344
-0.0289055
-0.0211315
-0.0121888
-0.00417278
0.000227883
-0.00116699
-0.00646702
-0.0225944
-0.0240608
-0.025464
-0.0268683
-0.028789
-0.0314574
-0.0348725
-0.0388544
-0.0430396
-0.0468675
-0.0495858
-0.0503042
-0.0481185
-0.0423745
-0.0330192
-0.0210545
-0.00890659
-0.000403942
0.000567138
-0.00455959
-0.0299394
-0.0312215
-0.0323646
-0.0335024
-0.0353084
-0.0381217
-0.0419931
-0.0467532
-0.0520132
-0.0571435
-0.0612653
-0.0632824
-0.0619905
-0.0563156
-0.0457085
-0.0307356
-0.0138244
0.000159612
0.00518524
0.00156963
-0.0382073
-0.039131
-0.0396646
-0.0400721
-0.0413148
-0.0438937
-0.0479149
-0.0532065
-0.05934
-0.0656105
-0.0710189
-0.0742862
-0.0739384
-0.0685082
-0.0569115
-0.0390833
-0.0170387
0.00373457
0.0149388
0.0150744
-0.0477459
-0.0478992
-0.047175
-0.0461222
-0.0461794
-0.0480427
-0.0518406
-0.0573544
-0.0640752
-0.0711938
-0.0775774
-0.0817706
-0.0820577
-0.0766309
-0.0639193
-0.0431749
-0.0156529
0.0132131
0.0332477
0.0404925
-0.0595591
-0.05796
-0.0547671
-0.0511797
-0.049304
-0.0499605
-0.0531931
-0.0586498
-0.0656737
-0.0733007
-0.080229
-0.0848075
-0.0850792
-0.078923
-0.0643476
-0.0399935
-0.0062075
0.0323608
0.0645228
0.0832844
-0.0758961
-0.0703868
-0.062413
-0.0547936
-0.0502174
-0.049284
-0.0517364
-0.0569617
-0.0640725
-0.0718909
-0.0789049
-0.0832361
-0.0826599
-0.0747121
-0.056961
-0.0274533
0.0143994
0.0653518
0.114266
0.150051
-0.103896
-0.087708
-0.0698485
-0.0562063
-0.0483153
-0.0456542
-0.0473419
-0.0523514
-0.0594752
-0.0672854
-0.0740506
-0.0776618
-0.0756189
-0.0650577
-0.0429516
-0.00644259
0.046451
0.115059
0.191266
0.258064
-0.175758
-0.11471
-0.0735513
-0.0519001
-0.0411984
-0.0375254
-0.0391167
-0.0444369
-0.0519087
-0.0598939
-0.0665294
-0.0695565
-0.0662839
-0.0535088
-0.0274861
0.0161437
0.0823801
0.177015
0.305054
0.452421
-0.355631
-0.155079
-0.0703511
-0.0427784
-0.0313598
-0.0275563
-0.0296343
-0.0357026
-0.0438483
-0.0522971
-0.0591547
-0.0621629
-0.0585857
-0.0450769
-0.0173094
0.0306181
0.10815
0.233061
0.434515
0.735606
)
;

boundaryField
{
    movingWall
    {
        type            zeroGradient;
    }
    fixedWalls
    {
        type            zeroGradient;
    }
    frontAndBack
    {
        type            empty;
    }
}


// ************************************************************************* //
