/*--------------------------------*- C++ -*----------------------------------*\
  =========                 |
  \\      /  F ield         | OpenFOAM: The Open Source CFD Toolbox
   \\    /   O peration     | Website:  https://openfoam.org
    \\  /    A nd           | Version:  13
     \\/     M anipulation  |
\*---------------------------------------------------------------------------*/
FoamFile
{
    format      ascii;
    class       volScalarField;
    location    "30";
    object      p;
}
// * * * * * * * * * * * * * * * * * * * * * * * * * * * * * * * * * * * * * //

dimensions      [0 2 -2 0 0 0 0];

internalField   nonuniform List<scalar> 
400
(
4.0809e-07
-0.000572085
-0.0012157
-0.00171854
-0.00195883
-0.00188432
-0.00147016
-0.000705216
0.000401632
0.00180631
0.00341504
0.00507535
0.00659138
0.00775144
0.00838014
0.00839598
0.00785569
0.00696925
0.00604837
0.00549469
0.000570292
-1.99597e-05
-0.000569378
-0.000956761
-0.0011317
-0.00106161
-0.000725618
-0.000108914
0.000789092
0.00193978
0.00327013
0.00466047
0.00594104
0.00693015
0.00747459
0.00750214
0.00705957
0.0063192
0.00554362
0.004973
0.00124602
0.000493345
-8.6364e-05
-0.000441065
-0.000605864
-0.000575968
-0.000336926
0.000132938
0.000850027
0.00180722
0.00295519
0.00419214
0.00536478
0.00629417
0.0068196
0.00685326
0.00642112
0.00566855
0.0048093
0.00403755
0.00174089
0.000764024
7.40347e-05
-0.000321593
-0.000536816
-0.000592432
-0.000477902
-0.000159811
0.000400374
0.00122243
0.00228203
0.00349322
0.00470207
0.00571009
0.00631976
0.00639852
0.00593389
0.00505094
0.00394878
0.00284481
0.00179579
0.000596028
-0.000227351
-0.000704455
-0.0010178
-0.00120691
-0.00125904
-0.00112266
-0.000730141
-2.74667e-05
0.000992117
0.00226397
0.00363044
0.00486163
0.00569906
0.00593271
0.00548079
0.00443588
0.00300033
0.00146249
0.00119507
-0.000202705
-0.00116296
-0.00175234
-0.00221104
-0.00259031
-0.00286892
-0.00297084
-0.00279155
-0.00223254
-0.00124367
0.000150913
0.00179325
0.00342023
0.00469062
0.00527513
0.0049723
0.00380608
0.00197942
-0.00010364
-0.000241224
-0.00179973
-0.00289191
-0.00362186
-0.00427732
-0.00491625
-0.00550469
-0.00593715
-0.00606416
-0.00572804
-0.00480651
-0.00328476
-0.00126993
0.000947105
0.0029267
0.00417027
0.00427967
0.00313596
0.000903024
-0.00185584
-0.00265155
-0.00432594
-0.00554087
-0.00643891
-0.00734672
-0.00832732
-0.00933347
-0.0102283
-0.0108108
-0.01085
-0.0101331
-0.00853856
-0.00610663
-0.00311183
-8.60021e-05
0.00225546
0.00321307
0.0023957
-0.000176948
-0.00375253
-0.00612098
-0.00786128
-0.00918432
-0.0102714
-0.0114826
-0.0128889
-0.014434
-0.0159524
-0.0171892
-0.0178272
-0.0175349
-0.0160423
-0.0132526
-0.00935706
-0.00493559
-0.00094098
0.00150851
0.001555
-0.00113673
-0.00564637
-0.0106711
-0.0124232
-0.0138271
-0.0151016
-0.0166418
-0.0185354
-0.0207267
-0.02303
-0.02514
-0.0266487
-0.0270836
-0.0259771
-0.0230338
-0.0182536
-0.0121673
-0.0059217
-0.00114186
0.00060345
-0.00173097
-0.00719472
-0.0162601
-0.0179649
-0.0193953
-0.0208057
-0.022641
-0.0250229
-0.0279108
-0.031111
-0.034277
-0.0369134
-0.0383948
-0.0380062
-0.0352836
-0.0298331
-0.0220047
-0.013006
-0.00495938
-0.00037514
-0.0015156
-0.00772025
-0.0228025
-0.0243896
-0.0257422
-0.027148
-0.029143
-0.0319102
-0.0354419
-0.0395489
-0.0438544
-0.0477841
-0.0505794
-0.0513766
-0.0491629
-0.0433935
-0.0339884
-0.0219772
-0.00980549
-0.00102434
0.000280465
-0.00599958
-0.0302221
-0.0315858
-0.0326691
-0.0337916
-0.0356676
-0.0385794
-0.0425685
-0.0474545
-0.0528338
-0.0580621
-0.0622505
-0.0643101
-0.0630218
-0.0573315
-0.0466924
-0.0317045
-0.0148007
-0.000416654
0.00496602
2.32166e-05
-0.0385595
-0.039489
-0.0399608
-0.0403265
-0.0416345
-0.0443091
-0.0484451
-0.0538588
-0.0601054
-0.0664649
-0.0719289
-0.075221
-0.0748699
-0.0694209
-0.0578066
-0.0400017
-0.0180228
0.00327996
0.014699
0.0135561
-0.0481743
-0.0481565
-0.047403
-0.0462837
-0.0464116
-0.0483708
-0.052281
-0.0579127
-0.0647389
-0.0719349
-0.0783601
-0.0825608
-0.0828318
-0.0773734
-0.0646448
-0.0439366
-0.016543
0.0130193
0.0329315
0.0392811
-0.0602345
-0.0579572
-0.0548668
-0.051213
-0.0494267
-0.050178
-0.0535199
-0.0590932
-0.0662196
-0.0739183
-0.080879
-0.085453
-0.0857065
-0.0795194
-0.0649415
-0.0406109
-0.00697848
0.0328172
0.0647941
0.0836772
-0.077481
-0.0694728
-0.062087
-0.054549
-0.0501386
-0.0493247
-0.051904
-0.0572606
-0.0644858
-0.0723845
-0.0794395
-0.0837779
-0.083218
-0.0752826
-0.057621
-0.0282109
0.0133528
0.0666614
0.115753
0.154808
-0.108925
-0.0850397
-0.069773
-0.0563912
-0.0485407
-0.0458808
-0.0476239
-0.0527146
-0.0599168
-0.0677766
-0.0745519
-0.0781397
-0.076104
-0.0655422
-0.0436429
-0.00744473
0.0447435
0.114933
0.188079
0.263281
-0.168693
-0.100745
-0.0730928
-0.0522878
-0.0413099
-0.0376994
-0.0394416
-0.0448651
-0.0524154
-0.0604465
-0.0670735
-0.0700475
-0.0666871
-0.053788
-0.0278895
0.0154102
0.0800719
0.17276
0.285855
0.445986
-0.402754
-0.139031
-0.0734588
-0.0447298
-0.0305715
-0.0266172
-0.0290852
-0.0353731
-0.0436537
-0.052207
-0.0591236
-0.0621452
-0.0586171
-0.0452137
-0.0174505
0.031079
0.108496
0.236657
0.427488
0.79368
)
;

boundaryField
{
    movingWall
    {
        type            zeroGradient;
    }
    fixedWalls
    {
        type            zeroGradient;
    }
    frontAndBack
    {
        type            empty;
    }
}


// ************************************************************************* //
