/*--------------------------------*- C++ -*----------------------------------*\
  =========                 |
  \\      /  F ield         | OpenFOAM: The Open Source CFD Toolbox
   \\    /   O peration     | Website:  https://openfoam.org
    \\  /    A nd           | Version:  13
     \\/     M anipulation  |
\*---------------------------------------------------------------------------*/
FoamFile
{
    format      ascii;
    class       surfaceScalarField;
    location    "30";
    object      phi_0;
}
// * * * * * * * * * * * * * * * * * * * * * * * * * * * * * * * * * * * * * //

dimensions      [0 3 -1 0 0 0 0];

internalField   nonuniform List<scalar> 
760
(
4.1557e-06
-4.15534e-06
-3.88911e-05
4.30474e-05
-0.000130266
9.13746e-05
-0.000254304
0.000124038
-0.00039532
0.000141016
-0.000540123
0.000144804
-0.000677045
0.000136921
-0.00079459
0.000117545
-0.000880881
8.62918e-05
-0.000924318
4.34372e-05
-0.000915419
-8.89737e-06
-0.000849513
-6.59034e-05
-0.000729493
-0.000120019
-0.000567685
-0.000161808
-0.00038572
-0.000181963
-0.000211611
-0.000174108
-7.39979e-05
-0.000137614
5.56062e-06
-7.95585e-05
2.18788e-05
-1.63173e-05
2.18783e-05
-4.66961e-05
4.25401e-05
-0.000206415
0.000202766
-0.000466121
0.00035108
-0.00079368
0.000451597
-0.00115536
0.000502695
-0.00152013
0.000509582
-0.00185905
0.00047584
-0.0021438
0.000402294
-0.00234658
0.000289073
-0.00244205
0.000138913
-0.00241126
-3.96849e-05
-0.00224665
-0.000230512
-0.00195701
-0.000409655
-0.00157048
-0.000548336
-0.00113388
-0.000618564
-0.000706859
-0.000601125
-0.000350518
-0.000493953
-0.000111832
-0.000318243
-6.59673e-06
-0.000121553
1.52805e-05
-0.000109905
0.000152445
-0.00039848
0.000491341
-0.000820401
0.000773
-0.00132747
0.000958671
-0.00187356
0.00104879
-0.00241595
0.00105197
-0.0029141
0.00097399
-0.0033285
0.000816695
-0.00362112
0.000581707
-0.00375824
0.000276033
-0.00371516
-8.27619e-05
-0.00348219
-0.000463477
-0.00307046
-0.000821388
-0.00251583
-0.00110296
-0.00187898
-0.00125541
-0.00123927
-0.00124083
-0.000681245
-0.00105198
-0.000274756
-0.000724733
-5.3556e-05
-0.000342756
-3.82756e-05
-0.000169967
0.000322411
-0.000582817
0.000904192
-0.00115788
0.00134806
-0.00182848
0.00162928
-0.00253764
0.00175794
-0.00323459
0.00174891
-0.00387165
0.00161106
-0.00440246
0.0013475
-0.00478235
0.000961599
-0.00497123
0.000464921
-0.00493846
-0.000115527
-0.0046691
-0.000732843
-0.00417071
-0.00131977
-0.00347935
-0.00179432
-0.0026623
-0.00207246
-0.00181447
-0.00208867
-0.00104494
-0.00182151
-0.000453535
-0.00131614
-0.00010302
-0.000693271
-0.000141296
-0.000223498
0.000545909
-0.000748903
0.0014296
-0.00146301
0.00206216
-0.00228119
0.00244746
-0.00313701
0.00261377
-0.0039744
0.0025863
-0.00474192
0.00237857
-0.00538957
0.00199516
-0.00586837
0.0014404
-0.00613237
0.000728929
-0.00614306
-0.000104843
-0.0058755
-0.00100041
-0.0053267
-0.00186857
-0.00452472
-0.0025963
-0.00353653
-0.00306065
-0.00246993
-0.00315528
-0.00146298
-0.00282845
-0.000656861
-0.00212227
-0.000156917
-0.00119321
-0.000298212
-0.000268885
0.000814794
-0.000890724
0.00205144
-0.00172499
0.00289643
-0.00267177
0.00339424
-0.00365731
0.00359931
-0.00462277
0.00355176
-0.00551586
0.00327167
-0.00628575
0.00276505
-0.00688101
0.00203565
-0.00725013
0.00109806
-0.00734484
-1.01346e-05
-0.00712546
-0.0012198
-0.00657115
-0.00242287
-0.00569262
-0.00347483
-0.00454722
-0.00420605
-0.0032501
-0.0044524
-0.00197118
-0.00410738
-0.000906439
-0.003187
-0.00022277
-0.00187688
-0.000520983
-0.000304423
0.00111922
-0.00100254
0.00274955
-0.00193297
0.00382686
-0.00298417
0.00444543
-0.00407769
0.00469282
-0.00515445
0.00462852
-0.00616407
0.00428129
-0.00705768
0.00365865
-0.00778375
0.00276171
-0.00828659
0.0016009
-0.00850733
0.000210602
-0.00838922
-0.0013379
-0.00788689
-0.00292519
-0.00698362
-0.00437811
-0.0057141
-0.00547556
-0.00418878
-0.00597772
-0.00260572
-0.00569045
-0.00122788
-0.00456483
-0.000310012
-0.00279476
-0.000830996
-0.000328325
0.00144754
-0.00107858
0.0034998
-0.00207557
0.00482385
-0.00319999
0.00556985
-0.00437126
0.00586409
-0.00553249
0.00578974
-0.00663793
0.00538673
-0.00764375
0.00466448
-0.00850166
0.00361962
-0.00915491
0.00225415
-0.00953684
0.000592533
-0.00957345
-0.00130129
-0.00919195
-0.00330669
-0.00833896
-0.00523111
-0.00701037
-0.00680416
-0.00529117
-0.00769691
-0.00339159
-0.00759003
-0.00164584
-0.00631058
-0.000429017
-0.00401159
-0.00126001
-0.00033936
0.0017869
-0.00111444
0.00427488
-0.00214301
0.00585241
-0.00330135
0.00672818
-0.00450895
0.0070717
-0.00571323
0.00699402
-0.00687572
0.00654922
-0.00796112
0.00574987
-0.00892881
0.00458732
-0.00972643
0.00305177
-0.0102854
0.00115152
-0.0105199
-0.00106682
-0.0103316
-0.00349501
-0.00962543
-0.00593724
-0.00834246
-0.00808714
-0.00651376
-0.00952561
-0.00432887
-0.00977491
-0.00217898
-0.00846047
-0.000590749
-0.00559982
-0.00185076
-0.000337936
0.00212484
-0.00110974
0.00504668
-0.00213115
0.00687382
-0.00327634
0.00787337
-0.00446662
0.00826198
-0.00565562
0.00818302
-0.00681469
0.00770829
-0.00792067
0.00685585
-0.00894585
0.00561249
-0.00984945
0.00395537
-0.0105702
0.00187231
-0.0110207
-0.000616319
-0.0110864
-0.0034294
-0.0106332
-0.00639038
-0.00953709
-0.00918326
-0.00774473
-0.011318
-0.00537527
-0.0121444
-0.00283217
-0.0110036
-0.000806197
-0.00762579
-0.00265696
-0.000327584
0.00245242
-0.00107161
0.00579071
-0.00204683
0.00784904
-0.00312616
0.00895269
-0.00423442
0.00937024
-0.00533364
0.00928224
-0.0064076
0.00878226
-0.00744876
0.007897
-0.00844739
0.00661112
-0.009382
0.00488998
-0.0102096
0.00269991
-0.0108549
2.90073e-05
-0.0112036
-0.00308072
-0.0110962
-0.00649778
-0.0103458
-0.00993371
-0.00879249
-0.0128712
-0.00642709
-0.0145098
-0.00358396
-0.0138467
-0.00108471
-0.0101251
-0.00374167
-0.00031691
0.00276933
-0.00101891
0.00649272
-0.00191367
0.0087438
-0.00287228
0.00991131
-0.00382593
0.0103239
-0.00474857
0.0102049
-0.00563958
0.00967327
-0.00651013
0.00876754
-0.0073725
0.0074735
-0.0082305
0.00574798
-0.00906886
0.00353827
-0.00984094
0.000801076
-0.0104505
-0.00247114
-0.0107386
-0.00620972
-0.0104754
-0.0101968
-0.00939349
-0.0139532
-0.00730623
-0.016597
-0.00436971
-0.0167832
-0.0014299
-0.0130649
-0.00517157
-0.00032237
0.0030917
-0.000987049
0.0071574
-0.00177715
0.00953391
-0.00256119
0.0106953
-0.00328305
0.0110457
-0.00393521
0.010857
-0.00453724
0.0102753
-0.00512175
0.00935205
-0.005725
0.00807675
-0.00637888
0.00640186
-0.00710163
0.00426102
-0.00788479
0.00158423
-0.00867293
-0.00168299
-0.0093369
-0.00554576
-0.00964321
-0.00989053
-0.00924577
-0.0143506
-0.0077639
-0.0180789
-0.00506479
-0.0194823
-0.00183142
-0.0162982
-0.007003
-0.000372755
0.00346445
-0.00103336
0.007818
-0.00170696
0.0102075
-0.00226249
0.0112509
-0.00267055
0.0114538
-0.00295403
0.0111405
-0.0031594
0.0104807
-0.00334316
0.00953581
-0.00356523
0.00829882
-0.00388416
0.00672078
-0.00435119
0.00472804
-0.00500023
0.00223327
-0.00582953
-0.000853689
-0.00676978
-0.00460551
-0.00763383
-0.00902648
-0.00805898
-0.0139255
-0.00750412
-0.0186338
-0.00547498
-0.0215115
-0.00225073
-0.0195225
-0.00925372
-0.00051593
0.00398038
-0.00124073
0.0085428
-0.00178955
0.0107563
-0.00204932
0.0115106
-0.00204624
0.0114507
-0.0018528
0.0109471
-0.00155128
0.0101791
-0.00122403
0.00920856
-0.000952209
0.008027
-0.000816088
0.00658466
-0.00089403
0.00480599
-0.00125807
0.00259732
-0.00196223
-0.000149535
-0.00301526
-0.00355247
-0.00432388
-0.00771786
-0.00559266
-0.0126567
-0.00621265
-0.0180138
-0.00533317
-0.022391
-0.0025983
-0.0222573
-0.011852
-0.000820927
0.00480131
-0.00170404
0.00942591
-0.00208255
0.0111349
-0.00192256
0.0113507
-0.00136306
0.0108912
-0.000553274
0.0101373
0.000379872
0.00924599
0.00132843
0.00826
0.00219493
0.0071605
0.00288507
0.00589452
0.00330273
0.00438834
0.00334804
0.002552
0.00292046
0.00027804
0.00193382
-0.00256582
0.000361335
-0.00614537
-0.00165017
-0.0106452
-0.00356619
-0.0160977
-0.00429192
-0.0216652
-0.00269931
-0.02385
-0.0145513
-0.00135451
0.00615582
-0.00243733
0.0105087
-0.00242087
0.0111184
-0.0015493
0.0104791
-0.00017631
0.00951823
0.00144862
0.00851237
0.0031573
0.00753732
0.00482679
0.00659052
0.00635588
0.00563142
0.00764892
0.00460148
0.00860502
0.00343224
0.00911083
0.00204619
0.00903615
0.000352721
0.00823633
-0.001766
0.00657178
-0.00448082
0.00399393
-0.00806736
0.00080016
-0.012904
-0.00191208
-0.018953
-0.00226619
-0.0234959
-0.0168175
-0.00213619
0.00829201
-0.00292921
0.0113017
-0.00170541
0.00989458
0.000502685
0.00827099
0.00306875
0.00695216
0.0057039
0.00587723
0.00825632
0.00498489
0.0106303
0.00421659
0.0127518
0.00350985
0.0145476
0.00280571
0.0159315
0.0020483
0.0167962
0.00118151
0.0170039
0.000145091
0.0163815
-0.00114366
0.0147126
-0.00281188
0.0117616
-0.00511639
0.00743804
-0.00858041
0.00243037
-0.0139453
-0.000891663
-0.0201738
-0.0177092
-0.00248499
0.010777
-1.01295e-05
0.00882687
0.00417597
0.00570848
0.00831821
0.00412875
0.0121026
0.00316781
0.0154994
0.00248038
0.018511
0.00197331
0.0211441
0.00158346
0.0233962
0.00125776
0.0252453
0.000956623
0.0266446
0.00064901
0.027516
0.000310117
0.0277451
-8.40375e-05
0.0271713
-0.000569833
0.0255558
-0.00119636
0.0225366
-0.00209714
0.0176109
-0.00365477
0.0103955
-0.00672992
0.00247143
-0.0122497
-0.0152378
0.010777
0.0196039
0.0253123
0.0294411
0.0326089
0.0350893
0.0370626
0.0386461
0.0399038
0.0408604
0.0415095
0.0418196
0.0417355
0.0411657
0.0399693
0.0378722
0.0342174
0.0274875
0.0152378
)
;

boundaryField
{
    movingWall
    {
        type            calculated;
        value           uniform 0;
    }
    fixedWalls
    {
        type            calculated;
        value           uniform 0;
    }
    frontAndBack
    {
        type            empty;
    }
}


// ************************************************************************* //
