/*--------------------------------*- C++ -*----------------------------------*\
  =========                 |
  \\      /  F ield         | OpenFOAM: The Open Source CFD Toolbox
   \\    /   O peration     | Website:  https://openfoam.org
    \\  /    A nd           | Version:  13
     \\/     M anipulation  |
\*---------------------------------------------------------------------------*/
FoamFile
{
    format      ascii;
    class       volVectorField;
    location    "30";
    object      U;
}
// * * * * * * * * * * * * * * * * * * * * * * * * * * * * * * * * * * * * * //

dimensions      [0 1 -1 0 0 0 0];

internalField   nonuniform List<vector> 
400
(
(0.000176524 -0.000180225 0)
(-0.000145724 3.48447e-05 0)
(-0.00152598 0.000269739 0)
(-0.00374804 0.000419103 0)
(-0.0064697 0.000497773 0)
(-0.0093935 0.000527063 0)
(-0.0122729 0.000516771 0)
(-0.0148782 0.000466101 0)
(-0.0169738 0.000368666 0)
(-0.0183184 0.000219393 0)
(-0.0186909 2.15894e-05 0)
(-0.0179392 -0.000207669 0)
(-0.0160373 -0.000435143 0)
(-0.0131361 -0.00061522 0)
(-0.00958333 -0.000700145 0)
(-0.00589475 -0.000655317 0)
(-0.00266645 -0.000474039 0)
(-0.000433697 -0.000185797 0)
(0.00051739 0.000129747 0)
(0.000302592 0.000295734 0)
(-5.10169e-05 0.000144423 0)
(-0.00205131 0.00191103 0)
(-0.0063398 0.00370931 0)
(-0.0123932 0.0049517 0)
(-0.0194676 0.00560435 0)
(-0.0269017 0.00574263 0)
(-0.0341001 0.00541737 0)
(-0.0404912 0.00463615 0)
(-0.0455064 0.0033902 0)
(-0.0485981 0.00169856 0)
(-0.0493015 -0.000348726 0)
(-0.0473293 -0.00256246 0)
(-0.0426787 -0.00465256 0)
(-0.0357171 -0.00626327 0)
(-0.0272117 -0.00704725 0)
(-0.0182677 -0.0067686 0)
(-0.010155 -0.00540778 0)
(-0.00403045 -0.00323712 0)
(-0.000594748 -0.00087447 0)
(0.00021329 0.000566031 0)
(-0.000351351 0.00170089 0)
(-0.00440993 0.00637237 0)
(-0.0116712 0.0105121 0)
(-0.0212372 0.0133105 0)
(-0.0320341 0.0147197 0)
(-0.0431638 0.0148655 0)
(-0.0538019 0.0138378 0)
(-0.0631468 0.0116605 0)
(-0.0704112 0.00834782 0)
(-0.0748559 0.00399151 0)
(-0.0758701 -0.00115537 0)
(-0.073084 -0.0066285 0)
(-0.066493 -0.0117567 0)
(-0.0565623 -0.0157379 0)
(-0.0442742 -0.0177935 0)
(-0.0310744 -0.0173857 0)
(-0.0186787 -0.0144505 0)
(-0.00873488 -0.00957093 0)
(-0.00241768 -0.00405264 0)
(2.81718e-05 -8.07005e-06 0)
(-0.000623237 0.00452557 0)
(-0.00668424 0.013454 0)
(-0.0167964 0.0205828 0)
(-0.0296199 0.0252156 0)
(-0.0437485 0.0274153 0)
(-0.0581065 0.0273977 0)
(-0.0717259 0.0253024 0)
(-0.083666 0.0211774 0)
(-0.0930036 0.0150734 0)
(-0.0988691 0.00718009 0)
(-0.100528 -0.00205173 0)
(-0.0974961 -0.0118357 0)
(-0.0896752 -0.0210539 0)
(-0.0774863 -0.0283648 0)
(-0.0619666 -0.0324334 0)
(-0.0447744 -0.0322774 0)
(-0.0280305 -0.0276685 0)
(-0.0139579 -0.0194593 0)
(-0.00440449 -0.00969716 0)
(-0.000131112 -0.00154625 0)
(-0.000857438 0.00850467 0)
(-0.00872144 0.0229356 0)
(-0.0214271 0.0336032 0)
(-0.0372003 0.0402445 0)
(-0.0543227 0.0432027 0)
(-0.0715847 0.0428576 0)
(-0.0879393 0.0394247 0)
(-0.102378 0.0329807 0)
(-0.1139 0.0236094 0)
(-0.121539 0.0115861 0)
(-0.124425 -0.00245704 0)
(-0.121892 -0.0174255 0)
(-0.113626 -0.0317441 0)
(-0.0998443 -0.0434696 0)
(-0.0814748 -0.050569 0)
(-0.0602775 -0.0513968 0)
(-0.038786 -0.0453167 0)
(-0.0199656 -0.0332828 0)
(-0.0066248 -0.0180847 0)
(-0.000276632 -0.0041038 0)
(-0.00105108 0.0134839 0)
(-0.0104478 0.0345279 0)
(-0.0253862 0.0492366 0)
(-0.0437163 0.0580489 0)
(-0.0634571 0.0617581 0)
(-0.0833121 0.0609979 0)
(-0.102212 0.0560956 0)
(-0.119139 0.0471584 0)
(-0.13307 0.0342786 0)
(-0.142963 0.0177699 0)
(-0.147798 -0.00162035 0)
(-0.146664 -0.0225553 0)
(-0.138909 -0.0430433 0)
(-0.124372 -0.0605004 0)
(-0.103676 -0.072034 0)
(-0.0785111 -0.0750268 0)
(-0.0517765 -0.068034 0)
(-0.0273442 -0.0517787 0)
(-0.00936027 -0.0297388 0)
(-0.000450827 -0.00782957 0)
(-0.00119741 0.0192809 0)
(-0.0117947 0.0478661 0)
(-0.0285074 0.067057 0)
(-0.0488934 0.0782084 0)
(-0.0707761 0.0827155 0)
(-0.0928212 0.0815573 0)
(-0.11399 0.0752137 0)
(-0.133317 0.0638216 0)
(-0.149805 0.047443 0)
(-0.162379 0.0263543 0)
(-0.169879 0.00131148 0)
(-0.171118 -0.0262289 0)
(-0.165018 -0.053954 0)
(-0.150876 -0.0786564 0)
(-0.128766 -0.0964413 0)
(-0.10004 -0.103353 0)
(-0.0677588 -0.0965613 0)
(-0.03676 -0.0759652 0)
(-0.0129724 -0.0455086 0)
(-0.000704677 -0.0130513 0)
(-0.00128826 0.0256777 0)
(-0.012694 0.0625025 0)
(-0.0306252 0.0865263 0)
(-0.0524381 0.100174 0)
(-0.0758305 0.105568 0)
(-0.0994778 0.104121 0)
(-0.122423 0.0965112 0)
(-0.143808 0.0829072 0)
(-0.162731 0.0632983 0)
(-0.178151 0.0378347 0)
(-0.188828 0.0071462 0)
(-0.19333 -0.0273589 0)
(-0.190135 -0.0632155 0)
(-0.177881 -0.0967053 0)
(-0.155847 -0.122884 0)
(-0.124655 -0.136115 0)
(-0.0871027 -0.131451 0)
(-0.0487988 -0.107005 0)
(-0.0178581 -0.0665674 0)
(-0.00110084 -0.0203009 0)
(-0.00131896 0.0324228 0)
(-0.0130995 0.0779128 0)
(-0.0316097 0.106991 0)
(-0.0540868 0.123237 0)
(-0.0781649 0.129604 0)
(-0.10257 0.12802 0)
(-0.12647 0.119416 0)
(-0.149178 0.104005 0)
(-0.169964 0.0816736 0)
(-0.18792 0.052364 0)
(-0.201845 0.0164411 0)
(-0.210183 -0.0249313 0)
(-0.211048 -0.069382 0)
(-0.202411 -0.112929 0)
(-0.182561 -0.149713 0)
(-0.150943 -0.172231 0)
(-0.109424 -0.172657 0)
(-0.0637781 -0.145931 0)
(-0.0244209 -0.0943368 0)
(-0.00172188 -0.0303288 0)
(-0.00129562 0.0392519 0)
(-0.0130246 0.0935259 0)
(-0.031434 0.1277 0)
(-0.0537002 0.146529 0)
(-0.0774422 0.153872 0)
(-0.101469 0.152263 0)
(-0.125119 0.142946 0)
(-0.147931 0.126218 0)
(-0.169436 0.101857 0)
(-0.188982 0.0695448 0)
(-0.205572 0.0292684 0)
(-0.217727 -0.018252 0)
(-0.223408 -0.0710359 0)
(-0.220062 -0.125229 0)
(-0.204942 -0.174446 0)
(-0.17594 -0.209458 0)
(-0.133169 -0.219011 0)
(-0.0814697 -0.193174 0)
(-0.0330173 -0.130302 0)
(-0.00268134 -0.0441131 0)
(-0.00124509 0.0459349 0)
(-0.0125946 0.10879 0)
(-0.0302622 0.147853 0)
(-0.0513868 0.169035 0)
(-0.0736048 0.17718 0)
(-0.0958481 0.175515 0)
(-0.117669 0.165678 0)
(-0.138891 0.148105 0)
(-0.159389 0.122499 0)
(-0.178891 0.0882786 0)
(-0.196787 0.0449926 0)
(-0.211928 -0.00723589 0)
(-0.222436 -0.0671343 0)
(-0.22555 -0.131454 0)
(-0.217691 -0.193942 0)
(-0.195059 -0.244256 0)
(-0.155257 -0.267705 0)
(-0.100719 -0.247899 0)
(-0.0438291 -0.17565 0)
(-0.00413403 -0.0628515 0)
(-0.00122856 0.0523553 0)
(-0.0121113 0.123284 0)
(-0.0285514 0.166691 0)
(-0.0476301 0.189662 0)
(-0.0670334 0.19814 0)
(-0.0858832 0.196147 0)
(-0.104013 0.185798 0)
(-0.121594 0.167734 0)
(-0.138907 0.141647 0)
(-0.156155 0.106742 0)
(-0.173266 0.0621401 0)
(-0.189674 0.0072967 0)
(-0.204005 -0.0574436 0)
(-0.213749 -0.129945 0)
(-0.214994 -0.204927 0)
(-0.202512 -0.272047 0)
(-0.171017 -0.314034 0)
(-0.119046 -0.30726 0)
(-0.0566147 -0.230656 0)
(-0.00627855 -0.0879024 0)
(-0.00136349 0.0586391 0)
(-0.0121383 0.136872 0)
(-0.0271536 0.183606 0)
(-0.0433863 0.207313 0)
(-0.0586379 0.215246 0)
(-0.0723617 0.212338 0)
(-0.0847894 0.201242 0)
(-0.096507 0.182858 0)
(-0.108245 0.156932 0)
(-0.120719 0.12254 0)
(-0.134473 0.0784618 0)
(-0.149659 0.0235296 0)
(-0.165721 -0.0429058 0)
(-0.180922 -0.120185 0)
(-0.191729 -0.204835 0)
(-0.192248 -0.287992 0)
(-0.174597 -0.351682 0)
(-0.132435 -0.365844 0)
(-0.070317 -0.293779 0)
(-0.00933878 -0.120602 0)
(-0.00186436 0.0653522 0)
(-0.0136207 0.1499 0)
(-0.0274023 0.198239 0)
(-0.0400886 0.220931 0)
(-0.0497805 0.226928 0)
(-0.0565421 0.222177 0)
(-0.0611939 0.209862 0)
(-0.0648256 0.19114 0)
(-0.0686304 0.165847 0)
(-0.0738132 0.133008 0)
(-0.0814968 0.0911946 0)
(-0.0925757 0.0387766 0)
(-0.107452 -0.0257728 0)
(-0.125566 -0.103313 0)
(-0.144569 -0.19274 0)
(-0.159091 -0.288186 0)
(-0.159786 -0.373698 0)
(-0.135477 -0.415712 0)
(-0.082575 -0.360606 0)
(-0.0134744 -0.161796 0)
(-0.00310235 0.0737936 0)
(-0.0180319 0.163393 0)
(-0.0310938 0.210484 0)
(-0.0393784 0.229428 0)
(-0.0417757 0.231498 0)
(-0.0394662 0.22367 0)
(-0.0341397 0.209515 0)
(-0.0274874 0.190332 0)
(-0.0211516 0.166001 0)
(-0.0167445 0.135546 0)
(-0.0158526 0.0974547 0)
(-0.019993 0.0498612 0)
(-0.0304747 -0.00932172 0)
(-0.048063 -0.0821628 0)
(-0.0722087 -0.169943 0)
(-0.0994085 -0.270843 0)
(-0.120778 -0.373971 0)
(-0.121723 -0.447301 0)
(-0.0892106 -0.423177 0)
(-0.0184713 -0.211036 0)
(-0.00559262 0.0864899 0)
(-0.0273591 0.179149 0)
(-0.0399298 0.220128 0)
(-0.0418744 0.231215 0)
(-0.0341213 0.226767 0)
(-0.01982 0.214482 0)
(-0.00185773 0.197914 0)
(0.0174139 0.178225 0)
(0.03597 0.155205 0)
(0.0519241 0.127853 0)
(0.0633991 0.0946687 0)
(0.0684576 0.0537797 0)
(0.065098 0.00294009 0)
(0.0513839 -0.0605294 0)
(0.0259166 -0.139662 0)
(-0.0106674 -0.236771 0)
(-0.0522793 -0.348498 0)
(-0.0838223 -0.45089 0)
(-0.0837415 -0.470419 0)
(-0.0231254 -0.2662 0)
(-0.00989641 0.108761 0)
(-0.0431423 0.199439 0)
(-0.052608 0.225377 0)
(-0.0424482 0.222737 0)
(-0.0188054 0.20893 0)
(0.0120875 0.191181 0)
(0.0460802 0.17217 0)
(0.0803554 0.152441 0)
(0.112753 0.131459 0)
(0.141368 0.108133 0)
(0.164284 0.081043 0)
(0.179409 0.0484928 0)
(0.184353 0.0084498 0)
(0.176391 -0.0417031 0)
(0.152559 -0.105647 0)
(0.110481 -0.188651 0)
(0.0514815 -0.295641 0)
(-0.0131192 -0.41742 0)
(-0.0570674 -0.488591 0)
(-0.0246916 -0.323709 0)
(-0.0177857 0.151778 0)
(-0.0613396 0.223663 0)
(-0.0524488 0.21755 0)
(-0.0147438 0.194687 0)
(0.0347989 0.170717 0)
(0.0877647 0.148704 0)
(0.140199 0.129042 0)
(0.189837 0.111127 0)
(0.235095 0.0939036 0)
(0.274575 0.0761717 0)
(0.306741 0.0566751 0)
(0.329712 0.0340641 0)
(0.341097 0.00680093 0)
(0.337878 -0.0271118 0)
(0.316227 -0.070833 0)
(0.271532 -0.130283 0)
(0.19958 -0.21634 0)
(0.102585 -0.338256 0)
(0.00411525 -0.456687 0)
(-0.0160174 -0.369175 0)
(-0.0241821 0.208359 0)
(-0.0378484 0.230451 0)
(0.0373116 0.176548 0)
(0.125 0.136774 0)
(0.205617 0.108909 0)
(0.277609 0.0880307 0)
(0.341672 0.0719408 0)
(0.398122 0.0590438 0)
(0.44703 0.0479485 0)
(0.488168 0.0375178 0)
(0.52089 0.0267876 0)
(0.54395 0.0148953 0)
(0.555441 0.000956318 0)
(0.552688 -0.0161073 0)
(0.53185 -0.0381319 0)
(0.487432 -0.0690476 0)
(0.410942 -0.119062 0)
(0.29074 -0.209354 0)
(0.133045 -0.338295 0)
(0.0387091 -0.340334 0)
(0.24191 0.109161 0)
(0.313539 0.0971578 0)
(0.444441 0.0569856 0)
(0.549729 0.0351023 0)
(0.624083 0.0237154 0)
(0.679512 0.0166783 0)
(0.72327 0.0119523 0)
(0.758478 0.00867855 0)
(0.786703 0.00625697 0)
(0.808754 0.0042505 0)
(0.824809 0.00235944 0)
(0.834487 0.000375812 0)
(0.836914 -0.00187792 0)
(0.830653 -0.00456596 0)
(0.81338 -0.00801481 0)
(0.781183 -0.0128916 0)
(0.725755 -0.0212567 0)
(0.629906 -0.0381224 0)
(0.459275 -0.0855841 0)
(0.304888 -0.125703 0)
)
;

boundaryField
{
    movingWall
    {
        type            fixedValue;
        value           uniform (1 0 0);
    }
    fixedWalls
    {
        type            fixedValue;
        value           uniform (0 0 0);
    }
    frontAndBack
    {
        type            empty;
    }
}


// ************************************************************************* //
