/*--------------------------------*- C++ -*----------------------------------*\
  =========                 |
  \\      /  F ield         | OpenFOAM: The Open Source CFD Toolbox
   \\    /   O peration     | Website:  https://openfoam.org
    \\  /    A nd           | Version:  13
     \\/     M anipulation  |
\*---------------------------------------------------------------------------*/
FoamFile
{
    format      ascii;
    class       surfaceScalarField;
    location    "6";
    object      phi;
}
// * * * * * * * * * * * * * * * * * * * * * * * * * * * * * * * * * * * * * //

dimensions      [0 3 -1 0 0 0 0];

internalField   nonuniform List<scalar> 
760
(
-2.58048e-06
2.57987e-06
-4.01234e-05
3.7543e-05
-0.000109253
6.91305e-05
-0.000197453
8.82002e-05
-0.000292936
9.54825e-05
-0.000386369
9.34333e-05
-0.000470631
8.4263e-05
-0.000540024
6.93927e-05
-0.000589657
4.96323e-05
-0.000615249
2.55925e-05
-0.000613368
-1.88048e-06
-0.000581982
-3.13855e-05
-0.000521351
-6.06307e-05
-0.000434906
-8.64465e-05
-0.000330044
-0.000104862
-0.000218449
-0.000111593
-0.000115499
-0.000102951
-3.81273e-05
-7.73724e-05
-1.90189e-07
-3.7937e-05
-1.91118e-07
-3.86951e-05
4.12752e-05
-0.000153482
0.000152331
-0.000332007
0.000247656
-0.000549106
0.0003053
-0.000780344
0.000326721
-0.00100511
0.000318196
-0.00120671
0.000285863
-0.00137139
0.000234074
-0.00148742
0.000165666
-0.00154485
8.30216e-05
-0.00153605
-1.06798e-05
-0.00145706
-0.000110375
-0.00130936
-0.000208325
-0.00110185
-0.000293961
-0.000852235
-0.000354478
-0.000587202
-0.000376625
-0.000340285
-0.000349866
-0.000146575
-0.00027108
-3.39186e-05
-0.000150592
-3.41126e-05
-7.63651e-05
0.000117641
-0.000268085
0.000344051
-0.00054186
0.000521431
-0.000862628
0.000626067
-0.00119798
0.000662071
-0.00152045
0.000640665
-0.00180746
0.000572876
-0.00204028
0.000466898
-0.00220306
0.000328442
-0.00228255
0.000162519
-0.00226885
-2.43818e-05
-0.00215692
-0.000222309
-0.00194883
-0.000416412
-0.00165623
-0.000586558
-0.00130224
-0.00070847
-0.000921798
-0.000757063
-0.000559236
-0.000712434
-0.000261922
-0.000568397
-7.01608e-05
-0.000342348
-0.000104274
-0.000108206
0.000225847
-0.000368178
0.000604022
-0.000725959
0.000879211
-0.00113543
0.00103554
-0.00155753
0.00108417
-0.00196021
0.00104335
-0.0023174
0.000930065
-0.00260737
0.000756873
-0.00281156
0.000532632
-0.00291416
0.000265123
-0.00290285
-3.56925e-05
-0.00277056
-0.000354602
-0.00251815
-0.00066882
-0.00215762
-0.000947084
-0.00171497
-0.00115113
-0.00123141
-0.00124062
-0.000761359
-0.00118248
-0.000365714
-0.000964047
-0.000100891
-0.000607171
-0.000205164
-0.000135298
0.000361145
-0.000456233
0.000924956
-0.000890158
0.00131314
-0.00138008
0.00152546
-0.00188075
0.00158483
-0.00235666
0.00151927
-0.00277956
0.00135296
-0.00312593
0.00110324
-0.00337518
0.000781884
-0.00350894
0.000398885
-0.00351164
-3.29898e-05
-0.00337249
-0.000493755
-0.00308875
-0.000952561
-0.0026701
-0.00136573
-0.00214321
-0.00167802
-0.00155484
-0.00182899
-0.000971134
-0.00176619
-0.000470535
-0.00146465
-0.000130121
-0.000947586
-0.000335284
-0.000160222
0.000521366
-0.000538499
0.00130323
-0.00104514
0.00181977
-0.00161267
0.002093
-0.00219005
0.00216222
-0.00273906
0.00206827
-0.00323019
0.0018441
-0.00363894
0.00151199
-0.0039431
0.00108604
-0.00412145
0.000577236
-0.00415406
-3.79749e-07
-0.00402433
-0.000623481
-0.00372298
-0.0012539
-0.00325401
-0.0018347
-0.00264181
-0.00229022
-0.00193759
-0.0025332
-0.00122143
-0.00248236
-0.000595199
-0.00209088
-0.000164149
-0.00137863
-0.000499432
-0.000185532
0.000706897
-0.000621408
0.00173911
-0.00120143
0.00239979
-0.00184772
0.00273929
-0.00250384
0.00281834
-0.00312959
0.00269403
-0.00369516
0.00240966
-0.00417587
0.0019927
-0.00454839
0.00145856
-0.00478858
0.00081742
-0.00487113
8.21679e-05
-0.00477154
-0.000723068
-0.00447058
-0.00155487
-0.00396206
-0.00234322
-0.0032635
-0.00298879
-0.00242758
-0.00336913
-0.00154947
-0.00336047
-0.000761841
-0.0028785
-0.000210275
-0.0019302
-0.000709707
-0.000213304
0.000920201
-0.000710156
0.00223596
-0.00136714
0.00305678
-0.00209543
0.00346758
-0.00283355
0.00355646
-0.00354028
0.00340075
-0.00418664
0.00305602
-0.00474895
0.00255502
-0.00520373
0.00191333
-0.00552437
0.00113806
-0.00567992
0.000237724
-0.00563632
-0.000766669
-0.00536097
-0.00183022
-0.00483199
-0.00287221
-0.00405287
-0.00376791
-0.00307117
-0.00435083
-0.00199521
-0.00443643
-0.000995842
-0.00387787
-0.000277053
-0.00264898
-0.000986758
-0.000245224
0.00116542
-0.000808535
0.00279927
-0.00154732
0.00379556
-0.00236055
0.00428082
-0.00318212
0.00437803
-0.00397092
0.00418955
-0.00470034
0.00378544
-0.00534938
0.00320406
-0.00589607
0.00246002
-0.00631291
0.00155489
-0.00656429
0.000489106
-0.00660628
-0.000724677
-0.00639046
-0.00204604
-0.00587338
-0.00338929
-0.0050349
-0.00460639
-0.00390564
-0.00548008
-0.00259843
-0.00574365
-0.00132621
-0.00515008
-0.000375132
-0.00360006
-0.00136189
-0.000282959
0.00144838
-0.000919476
0.00343578
-0.0017443
0.00462039
-0.00264234
0.00517885
-0.0035432
0.00527889
-0.00440742
0.00505377
-0.00521269
0.00459071
-0.00594293
0.0039343
-0.00658027
0.00309736
-0.00709925
0.00207387
-0.00746253
0.000852382
-0.00761853
-0.000568677
-0.00750308
-0.00216148
-0.00704678
-0.0038456
-0.006195
-0.00545816
-0.0049437
-0.00673139
-0.00339068
-0.00729666
-0.00178427
-0.00675649
-0.00051814
-0.00486619
-0.00188003
-0.000328775
0.00177716
-0.0010461
0.00415311
-0.00195866
0.00553294
-0.00293471
0.0061549
-0.00390039
0.00624458
-0.00481988
0.00597326
-0.00567758
0.00544841
-0.00646508
0.0047218
-0.00717212
0.0038044
-0.00777972
0.00268147
-0.00825423
0.00132689
-0.00854187
-0.000281037
-0.00856763
-0.00213571
-0.00823603
-0.0041772
-0.00744924
-0.00624495
-0.00614673
-0.0080339
-0.00437782
-0.00906558
-0.0023979
-0.00873641
-0.000723164
-0.00654093
-0.00260319
-0.000386569
0.00216373
-0.00119338
0.00495992
-0.00219029
0.00652985
-0.00322623
0.00719084
-0.00422574
0.00724409
-0.00515968
0.0069072
-0.00602225
0.00631099
-0.00681601
0.00551557
-0.00754244
0.00453082
-0.00819474
0.00333377
-0.00875079
0.00188293
-0.00916331
0.000131485
-0.00935816
-0.00194087
-0.00922091
-0.00431445
-0.00860955
-0.00685632
-0.00738737
-0.00925608
-0.00550943
-0.0109435
-0.00317741
-0.0110684
-0.00100997
-0.00870837
-0.00361317
-0.000463713
0.00262744
-0.00137064
0.00586685
-0.00243955
0.00759875
-0.00349868
0.00824997
-0.00447588
0.00822128
-0.00535403
0.00778535
-0.00614147
0.00709843
-0.00685562
0.00622971
-0.00751404
0.00518924
-0.00812799
0.00394772
-0.0086952
0.00245015
-0.00918962
0.000625907
-0.00955003
-0.00158046
-0.0096635
-0.00420098
-0.00935634
-0.00716348
-0.00840889
-0.0102035
-0.00663523
-0.0127172
-0.00408738
-0.0136163
-0.00139664
-0.0113991
-0.00500981
-0.000574518
0.00320196
-0.00159527
0.0068876
-0.00270691
0.00871039
-0.00372148
0.00926455
-0.0045822
0.009082
-0.0052941
0.00849725
-0.00588641
0.00769075
-0.00639604
0.00673934
-0.00686047
0.00565368
-0.00731346
0.00440071
-0.00777952
0.00291622
-0.0082657
0.00111209
-0.00874198
-0.00110419
-0.0091239
-0.00381905
-0.00923715
-0.00705023
-0.00879877
-0.0106419
-0.00745657
-0.0140594
-0.00499995
-0.0160729
-0.00188561
-0.0145135
-0.00689542
-0.00074619
0.00394815
-0.00189633
0.00803774
-0.0029863
0.00980035
-0.00383365
0.0101119
-0.00442489
0.00967324
-0.00480619
0.00887856
-0.00503811
0.00792266
-0.00518206
0.00688328
-0.0052973
0.00576892
-0.00544056
0.00454396
-0.00566454
0.00314019
-0.00601373
0.00146127
-0.00650631
-0.000611595
-0.00711349
-0.00321187
-0.00770773
-0.00645599
-0.00799865
-0.010351
-0.00749325
-0.0145648
-0.0056327
-0.0179335
-0.00242813
-0.017718
-0.00932355
-0.00102347
0.00497161
-0.00230916
0.00932344
-0.00323211
0.0107233
-0.00368586
0.0105656
-0.00376139
0.00974877
-0.00357772
0.00869488
-0.0032393
0.00758424
-0.00283465
0.00647864
-0.0024413
0.00537557
-0.00213205
0.00423471
-0.00197991
0.00298805
-0.00206012
0.00154149
-0.00244237
-0.00022934
-0.00317056
-0.00248368
-0.00421454
-0.00541202
-0.00536573
-0.00919979
-0.00609154
-0.013839
-0.00548982
-0.0185352
-0.0028497
-0.0203581
-0.0121733
-0.00145412
0.00642573
-0.0028149
0.0106842
-0.00321619
0.0111246
-0.00284755
0.010197
-0.00202293
0.00892415
-0.000967112
0.00763907
0.000170744
0.00644639
0.00128776
0.00536163
0.00230355
0.00435978
0.00314616
0.0033921
0.00374108
0.00239313
0.00400079
0.00128178
0.00382138
-4.99269e-05
0.00309304
-0.00175535
0.00172065
-0.00403963
-0.000266659
-0.00721248
-0.00248087
-0.0116248
-0.00384521
-0.0171709
-0.00275083
-0.0214525
-0.0149241
-0.00206851
0.00849424
-0.00297542
0.0115911
-0.00192593
0.0100751
1.15933e-05
0.00825947
0.0022225
0.00671325
0.00442811
0.00543345
0.00649512
0.00437938
0.00835061
0.00350614
0.00994844
0.00276195
0.0112481
0.00209244
0.0122008
0.00144045
0.0127285
0.000754118
0.0127261
-4.75316e-05
0.0120509
-0.00108016
0.0104999
-0.00248861
0.00787405
-0.00458667
0.00419381
-0.00794451
0.000277253
-0.0132543
-0.00158963
-0.0195856
-0.0165137
-0.002407
0.0109012
0.000145133
0.009039
0.00446239
0.00575785
0.00858863
0.00413323
0.012225
0.00307688
0.0153603
0.00229813
0.0180129
0.00172676
0.0202157
0.00130341
0.0219999
0.000977736
0.0233816
0.000710733
0.024351
0.000471079
0.0248741
0.000230946
0.0248719
-4.53233e-05
0.0241923
-0.00040051
0.0226046
-0.000900926
0.0197351
-0.00171716
0.0150946
-0.00330401
0.0084283
-0.00658802
0.00141687
-0.0125742
-0.0150968
0.0109012
0.0199402
0.0256981
0.0298313
0.0329082
0.0352063
0.0369331
0.0382365
0.0392142
0.039925
0.0403961
0.040627
0.0405817
0.0401812
0.0392802
0.0375631
0.0342591
0.027671
0.0150968
)
;

boundaryField
{
    movingWall
    {
        type            calculated;
        value           uniform 0;
    }
    fixedWalls
    {
        type            calculated;
        value           uniform 0;
    }
    frontAndBack
    {
        type            empty;
    }
}


// ************************************************************************* //
