/*--------------------------------*- C++ -*----------------------------------*\
  =========                 |
  \\      /  F ield         | OpenFOAM: The Open Source CFD Toolbox
   \\    /   O peration     | Website:  https://openfoam.org
    \\  /    A nd           | Version:  13
     \\/     M anipulation  |
\*---------------------------------------------------------------------------*/
FoamFile
{
    format      ascii;
    class       volVectorField;
    location    "6";
    object      U;
}
// * * * * * * * * * * * * * * * * * * * * * * * * * * * * * * * * * * * * * //

dimensions      [0 1 -1 0 0 0 0];

internalField   nonuniform List<vector> 
400
(
(8.05633e-05 -8.29678e-05 0)
(-0.000299154 8.11115e-05 0)
(-0.00139481 0.000241205 0)
(-0.00301779 0.00034502 0)
(-0.00490151 0.000399264 0)
(-0.00682733 0.000412326 0)
(-0.00863184 0.0003912 0)
(-0.0101897 0.000339824 0)
(-0.0113969 0.000259973 0)
(-0.0121623 0.000153379 0)
(-0.0124081 2.4108e-05 0)
(-0.0120777 -0.000119399 0)
(-0.011151 -0.000263361 0)
(-0.00966176 -0.000388233 0)
(-0.00771522 -0.00047077 0)
(-0.00550052 -0.000488139 0)
(-0.00329123 -0.000424467 0)
(-0.0014242 -0.000278623 0)
(-0.000233876 -7.1736e-05 0)
(0.000108282 0.00010716 0)
(-8.07143e-05 0.00029527 0)
(-0.00162281 0.00157283 0)
(-0.00462288 0.00274503 0)
(-0.00870073 0.00346353 0)
(-0.0132977 0.00374075 0)
(-0.0179513 0.00366046 0)
(-0.0222877 0.00330242 0)
(-0.0260069 0.00272005 0)
(-0.028858 0.00194532 0)
(-0.0306251 0.00100333 0)
(-0.0311312 -7.17419e-05 0)
(-0.0302567 -0.00122254 0)
(-0.0279713 -0.00236003 0)
(-0.024372 -0.00335941 0)
(-0.0197179 -0.00406719 0)
(-0.01445 -0.00432096 0)
(-0.00917868 -0.0039864 0)
(-0.00461619 -0.00301685 0)
(-0.00145266 -0.00154395 0)
(-3.73837e-05 -0.000200906 0)
(-0.000257338 0.00145181 0)
(-0.00303123 0.00464725 0)
(-0.00778232 0.00728015 0)
(-0.0138986 0.00887389 0)
(-0.0206178 0.00945879 0)
(-0.0273286 0.00919684 0)
(-0.0335287 0.00825267 0)
(-0.0388101 0.00674794 0)
(-0.0428308 0.00476609 0)
(-0.0453008 0.00237971 0)
(-0.0459864 -0.000316305 0)
(-0.0447328 -0.00317485 0)
(-0.0415031 -0.00597611 0)
(-0.0364255 -0.00842237 0)
(-0.0298391 -0.0101559 0)
(-0.022322 -0.010809 0)
(-0.0146791 -0.0100932 0)
(-0.00786043 -0.00792892 0)
(-0.00282763 -0.00460537 0)
(-0.000201911 -0.00125114 0)
(-0.000406333 0.00331713 0)
(-0.00424872 0.00920499 0)
(-0.0105665 0.0136449 0)
(-0.0184519 0.0162293 0)
(-0.0269589 0.0170851 0)
(-0.0353657 0.0164925 0)
(-0.043091 0.0147242 0)
(-0.049663 0.0119855 0)
(-0.0546836 0.00842278 0)
(-0.0578101 0.00416576 0)
(-0.0587586 -0.000619288 0)
(-0.0573292 -0.00568056 0)
(-0.0534505 -0.0106453 0)
(-0.0472397 -0.0150087 0)
(-0.0390649 -0.0181608 0)
(-0.0295924 -0.0194691 0)
(-0.0197907 -0.0184283 0)
(-0.0108513 -0.0148703 0)
(-0.00403336 -0.00919761 0)
(-0.000340838 -0.00297704 0)
(-0.000532855 0.00576493 0)
(-0.00530068 0.0150367 0)
(-0.0130388 0.0215876 0)
(-0.0225306 0.0252472 0)
(-0.0326567 0.0263313 0)
(-0.0426013 0.0252867 0)
(-0.0517304 0.0225179 0)
(-0.0595355 0.0183225 0)
(-0.065582 0.0129101 0)
(-0.0694822 0.0064637 0)
(-0.0708943 -0.000783586 0)
(-0.0695477 -0.00847563 0)
(-0.0652956 -0.0160767 0)
(-0.0581913 -0.0228459 0)
(-0.0485799 -0.0278677 0)
(-0.0371829 -0.0301652 0)
(-0.0251378 -0.0289205 0)
(-0.0139359 -0.02379 0)
(-0.00521262 -0.0152352 0)
(-0.000478971 -0.00528631 0)
(-0.000644721 0.00872004 0)
(-0.00627376 0.0220261 0)
(-0.0153607 0.0309907 0)
(-0.0263963 0.0358165 0)
(-0.0380926 0.0371001 0)
(-0.0495514 0.0355133 0)
(-0.0601042 0.0316198 0)
(-0.0692244 0.0258159 0)
(-0.0764544 0.0183657 0)
(-0.0813633 0.00948817 0)
(-0.0835377 -0.000538169 0)
(-0.0826047 -0.0112709 0)
(-0.078291 -0.0220158 0)
(-0.0705212 -0.0317733 0)
(-0.0595503 -0.0392569 0)
(-0.0461092 -0.0430315 0)
(-0.0315104 -0.0418163 0)
(-0.0176272 -0.0349475 0)
(-0.00660305 -0.0228774 0)
(-0.000648376 -0.00820207 0)
(-0.000750066 0.012166 0)
(-0.00725753 0.0301418 0)
(-0.0176999 0.0418307 0)
(-0.0302995 0.0479271 0)
(-0.0435967 0.0494028 0)
(-0.0566239 0.0472186 0)
(-0.0686958 0.0421285 0)
(-0.0792869 0.0346311 0)
(-0.0879304 0.0250289 0)
(-0.0941571 0.0135465 0)
(-0.0974718 0.000469698 0)
(-0.0973686 -0.0137118 0)
(-0.0933931 -0.0281695 0)
(-0.0852607 -0.0416348 0)
(-0.0730424 -0.05238 0)
(-0.0573948 -0.0583605 0)
(-0.0397778 -0.0576076 0)
(-0.0225274 -0.0489013 0)
(-0.00848848 -0.0325616 0)
(-0.000888261 -0.0118886 0)
(-0.000855602 0.0161341 0)
(-0.00832549 0.0394278 0)
(-0.0201909 0.0541601 0)
(-0.0344266 0.0616352 0)
(-0.0493896 0.0633069 0)
(-0.0640578 0.060497 0)
(-0.0777519 0.0541847 0)
(-0.0899715 0.0449733 0)
(-0.100262 0.0331821 0)
(-0.108132 0.0189999 0)
(-0.113007 0.00266396 0)
(-0.114229 -0.0153516 0)
(-0.111113 -0.0341379 0)
(-0.103079 -0.0521765 0)
(-0.0898833 -0.0672409 0)
(-0.0719654 -0.0764989 0)
(-0.0508298 -0.0769791 0)
(-0.0293121 -0.0665191 0)
(-0.0112058 -0.0450438 0)
(-0.00124719 -0.0166671 0)
(-0.000966662 0.0206927 0)
(-0.00953599 0.049981 0)
(-0.0229273 0.0680749 0)
(-0.0388832 0.0770182 0)
(-0.0555561 0.0788773 0)
(-0.0718882 0.0754213 0)
(-0.0872349 0.067895 0)
(-0.101154 0.0570099 0)
(-0.113237 0.0430775 0)
(-0.123001 0.0262027 0)
(-0.129818 0.00650298 0)
(-0.13289 -0.015651 0)
(-0.131276 -0.0393652 0)
(-0.124017 -0.0629419 0)
(-0.110408 -0.0836461 0)
(-0.09045 -0.0976883 0)
(-0.0654674 -0.100692 0)
(-0.03871 -0.0889459 0)
(-0.0151708 -0.0614357 0)
(-0.00178712 -0.0230477 0)
(-0.00108919 0.0259421 0)
(-0.0109435 0.0619318 0)
(-0.0259715 0.0836796 0)
(-0.0436968 0.094123 0)
(-0.0620366 0.0961103 0)
(-0.0799219 0.0919633 0)
(-0.0967791 0.0832402 0)
(-0.112265 0.0707685 0)
(-0.126067 0.0548301 0)
(-0.137764 0.0353982 0)
(-0.146736 0.0123931 0)
(-0.152092 -0.0140301 0)
(-0.152665 -0.0431307 0)
(-0.147084 -0.0731811 0)
(-0.134038 -0.101025 0)
(-0.112811 -0.121822 0)
(-0.084156 -0.129354 0)
(-0.0514129 -0.117489 0)
(-0.0208972 -0.0832284 0)
(-0.00258845 -0.0317821 0)
(-0.00123425 0.0320202 0)
(-0.0126188 0.0754322 0)
(-0.0293759 0.101051 0)
(-0.0488292 0.112907 0)
(-0.0686224 0.114853 0)
(-0.087711 0.109895 0)
(-0.105639 0.0999588 0)
(-0.122213 0.0860038 0)
(-0.137276 0.0682704 0)
(-0.150548 0.0465641 0)
(-0.161514 0.020538 0)
(-0.169302 -0.00999053 0)
(-0.172623 -0.04461 0)
(-0.169753 -0.0818046 0)
(-0.158703 -0.118235 0)
(-0.13776 -0.148106 0)
(-0.10656 -0.163023 0)
(-0.0678376 -0.153334 0)
(-0.0289805 -0.112251 0)
(-0.00375564 -0.0439336 0)
(-0.00142695 0.0391234 0)
(-0.0146807 0.0906549 0)
(-0.0332147 0.120198 0)
(-0.054188 0.133159 0)
(-0.0749386 0.134701 0)
(-0.0945066 0.128663 0)
(-0.112616 0.117405 0)
(-0.129286 0.102037 0)
(-0.144584 0.0827653 0)
(-0.158472 0.0592156 0)
(-0.170667 0.0307318 0)
(-0.180485 -0.00330366 0)
(-0.186721 -0.043027 0)
(-0.187493 -0.0874297 0)
(-0.180221 -0.133422 0)
(-0.162029 -0.174664 0)
(-0.130827 -0.200595 0)
(-0.087648 -0.196962 0)
(-0.0399905 -0.150453 0)
(-0.0054233 -0.0609511 0)
(-0.00172417 0.0475562 0)
(-0.0173506 0.107807 0)
(-0.0376246 0.141003 0)
(-0.0596249 0.154395 0)
(-0.0803899 0.154857 0)
(-0.0991606 0.147238 0)
(-0.115938 0.134386 0)
(-0.131035 0.117589 0)
(-0.144822 0.0970373 0)
(-0.157597 0.0722039 0)
(-0.169454 0.042127 0)
(-0.180118 0.00570496 0)
(-0.188741 -0.0379169 0)
(-0.19361 -0.088576 0)
(-0.191903 -0.144034 0)
(-0.179689 -0.198218 0)
(-0.152717 -0.239065 0)
(-0.108966 -0.247186 0)
(-0.0541614 -0.199328 0)
(-0.0077609 -0.0847049 0)
(-0.00224946 0.05783 0)
(-0.0210436 0.127159 0)
(-0.0428489 0.16313 0)
(-0.0648776 0.175676 0)
(-0.0840002 0.173933 0)
(-0.099899 0.163918 0)
(-0.113021 0.148996 0)
(-0.124077 0.130635 0)
(-0.133826 0.109043 0)
(-0.14298 0.0835901 0)
(-0.152119 0.0530682 0)
(-0.161554 0.0159199 0)
(-0.171093 -0.0294575 0)
(-0.179638 -0.0840559 0)
(-0.18472 -0.147142 0)
(-0.181905 -0.214097 0)
(-0.164843 -0.272912 0)
(-0.127321 -0.299861 0)
(-0.0706868 -0.258707 0)
(-0.0109599 -0.117361 0)
(-0.003248 0.0708401 0)
(-0.0265078 0.149056 0)
(-0.0492281 0.185789 0)
(-0.0693224 0.195281 0)
(-0.0839587 0.189617 0)
(-0.0937531 0.176069 0)
(-0.0998868 0.158445 0)
(-0.103617 0.138342 0)
(-0.10615 0.115982 0)
(-0.108632 0.0906823 0)
(-0.112138 0.061096 0)
(-0.117614 0.0253464 0)
(-0.125718 -0.0187978 0)
(-0.136397 -0.0735534 0)
(-0.148279 -0.140184 0)
(-0.157483 -0.216861 0)
(-0.156481 -0.294085 0)
(-0.134611 -0.346669 0)
(-0.0863998 -0.324772 0)
(-0.0151185 -0.160821 0)
(-0.00512402 0.0882557 0)
(-0.0349067 0.173895 0)
(-0.0568518 0.207209 0)
(-0.0710429 0.21003 0)
(-0.0762792 0.19811 0)
(-0.0750575 0.179765 0)
(-0.0697121 0.158936 0)
(-0.0621753 0.13715 0)
(-0.054077 0.11454 0)
(-0.046882 0.0903735 0)
(-0.0420026 0.0632734 0)
(-0.0408687 0.0312745 0)
(-0.0449218 -0.00817984 0)
(-0.055326 -0.0582146 0)
(-0.07245 -0.122087 0)
(-0.0943595 -0.201732 0)
(-0.114313 -0.293088 0)
(-0.118585 -0.374801 0)
(-0.093798 -0.387728 0)
(-0.0197498 -0.215439 0)
(-0.00840881 0.113813 0)
(-0.0472314 0.201725 0)
(-0.0635028 0.223005 0)
(-0.0633043 0.213694 0)
(-0.0506834 0.193046 0)
(-0.0314207 0.169284 0)
(-0.00922456 0.145656 0)
(0.0134703 0.123121 0)
(0.0349064 0.101488 0)
(0.0536475 0.0798978 0)
(0.0683112 0.0570139 0)
(0.0773611 0.0310402 0)
(0.0789448 -0.00045966 0)
(0.0709711 -0.0407813 0)
(0.051212 -0.0943549 0)
(0.0184844 -0.166706 0)
(-0.0240503 -0.261483 0)
(-0.0632361 -0.368289 0)
(-0.0791906 -0.430329 0)
(-0.0224315 -0.278131 0)
(-0.0148891 0.15698 0)
(-0.0602999 0.230256 0)
(-0.0541446 0.222331 0)
(-0.0216282 0.194693 0)
(0.0212379 0.165079 0)
(0.0659647 0.137939 0)
(0.108845 0.1142 0)
(0.148049 0.0936131 0)
(0.182548 0.0754086 0)
(0.211571 0.058545 0)
(0.23431 0.0417867 0)
(0.249589 0.0237293 0)
(0.255685 0.00252711 0)
(0.250259 -0.0244138 0)
(0.229866 -0.0611694 0)
(0.190227 -0.114712 0)
(0.128434 -0.19592 0)
(0.0506049 -0.311985 0)
(-0.0234979 -0.427527 0)
(-0.0156453 -0.336801 0)
(-0.0206874 0.212271 0)
(-0.0356388 0.237251 0)
(0.0432175 0.180203 0)
(0.130842 0.138213 0)
(0.209409 0.106938 0)
(0.277151 0.0827768 0)
(0.334644 0.0641785 0)
(0.382757 0.0497434 0)
(0.422282 0.0381949 0)
(0.453768 0.0284308 0)
(0.477426 0.0194649 0)
(0.492517 0.0104834 0)
(0.498552 0.000101426 0)
(0.493015 -0.0128781 0)
(0.472297 -0.0308673 0)
(0.430759 -0.0590187 0)
(0.359497 -0.109629 0)
(0.249872 -0.205076 0)
(0.102431 -0.34267 0)
(0.0342962 -0.329042 0)
(0.243732 0.10999 0)
(0.318287 0.0988654 0)
(0.452579 0.0587608 0)
(0.557764 0.0366599 0)
(0.630913 0.0244791 0)
(0.683815 0.0169487 0)
(0.723229 0.0120896 0)
(0.752925 0.00887217 0)
(0.775319 0.00665172 0)
(0.791943 0.00501056 0)
(0.803648 0.00366722 0)
(0.810693 0.0023832 0)
(0.812723 0.00101096 0)
(0.808654 -0.000632395 0)
(0.796193 -0.00293014 0)
(0.771121 -0.0064465 0)
(0.723303 -0.0134645 0)
(0.635129 -0.0284139 0)
(0.463072 -0.0769438 0)
(0.302897 -0.122644 0)
)
;

boundaryField
{
    movingWall
    {
        type            fixedValue;
        value           uniform (1 0 0);
    }
    fixedWalls
    {
        type            fixedValue;
        value           uniform (0 0 0);
    }
    frontAndBack
    {
        type            empty;
    }
}


// ************************************************************************* //
