/*--------------------------------*- C++ -*----------------------------------*\
  =========                 |
  \\      /  F ield         | OpenFOAM: The Open Source CFD Toolbox
   \\    /   O peration     | Website:  https://openfoam.org
    \\  /    A nd           | Version:  13
     \\/     M anipulation  |
\*---------------------------------------------------------------------------*/
FoamFile
{
    format      ascii;
    class       volScalarField;
    location    "1";
    object      p;
}
// * * * * * * * * * * * * * * * * * * * * * * * * * * * * * * * * * * * * * //

dimensions      [0 2 -2 0 0 0 0];

internalField   nonuniform List<scalar> 
400
(
1.89275e-09
0.000172395
0.000726855
0.00169739
0.00305782
0.00476834
0.00677883
0.00903098
0.0114602
0.0139973
0.0165707
0.0191079
0.0215371
0.0237892
0.0257997
0.0275102
0.0288707
0.0298412
0.0303957
0.0305681
-0.000172382
2.23098e-06
0.000557825
0.001539
0.0029156
0.00464648
0.00668066
0.00895906
0.0114163
0.0139826
0.0165855
0.0191518
0.021609
0.0238874
0.0259216
0.0276525
0.0290291
0.0300102
0.0305658
0.0307404
-0.000737764
-0.000550568
2.61911e-05
0.00104419
0.00247208
0.00426671
0.00637486
0.00873509
0.0112797
0.0139367
0.0166314
0.0192883
0.021833
0.0241932
0.0263013
0.028096
0.0295239
0.0305419
0.0311186
0.0313058
-0.0017639
-0.00156266
-0.000946676
0.00013951
0.00166181
0.00357343
0.00581698
0.00832674
0.0110308
0.0138531
0.016715
0.0195372
0.0222413
0.0247511
0.0269946
0.0289062
0.0304286
0.0315147
0.0321307
0.032332
-0.00328528
-0.00306444
-0.00238973
-0.00120127
0.000462246
0.00254822
0.0049929
0.0077241
0.0106637
0.0137298
0.0168383
0.0199043
0.022844
0.0255752
0.0280198
0.0301058
0.0317693
0.0329578
0.0336325
0.0338533
-0.00535005
-0.0051023
-0.00434647
-0.00301707
-0.00115975
0.00116434
0.0038823
0.00691304
0.0101702
0.0135641
0.0170039
0.0203979
0.023655
0.0266857
0.0294037
0.0317278
0.0335851
0.0349145
0.0356704
0.0359181
-0.0080241
-0.0077404
-0.00687667
-0.00536068
-0.00324843
-0.000613373
0.00245897
0.00587564
0.00953976
0.0133527
0.0172153
0.0210283
0.0246924
0.0281091
0.0311814
0.0338165
0.0359287
0.0374447
0.0383085
0.0385922
-0.0113951
-0.0110639
-0.0100589
-0.00830033
-0.00585976
-0.00282825
0.000691375
0.00459083
0.00876054
0.0130916
0.0174764
0.0218075
0.0259772
0.0298767
0.0333963
0.0364278
0.0388684
0.0406269
0.0416319
0.0419632
-0.0155783
-0.0151838
-0.0139939
-0.0119215
-0.00906167
-0.00553098
-0.00145589
0.00303587
0.00781999
0.012777
0.0177911
0.0227481
0.0275322
0.0320239
0.036099
0.0396297
0.0424896
0.0445619
0.0457519
0.0461463
-0.0207248
-0.0202443
-0.0188098
-0.016329
-0.0129336
-0.00877756
-0.00401948
0.00118874
0.00670668
0.0124052
0.0181629
0.0238614
0.0293793
0.0345875
0.0393456
0.0435017
0.0468971
0.0493778
0.0508124
0.0512929
-0.0270356
-0.0264336
-0.0246683
-0.0216486
-0.0175644
-0.012625
-0.00703252
-0.000967701
0.00541303
0.0119742
0.0185939
0.025155
0.0315357
0.0376006
0.0431931
0.0481324
0.0522166
0.0552364
0.0570017
0.0576036
-0.0347838
-0.0340002
-0.0317732
-0.0280267
-0.0230463
-0.0171232
-0.0105165
-0.00343928
0.00393936
0.0114847
0.0190833
0.0266287
0.0340073
0.0410845
0.0476912
0.0536144
0.0585947
0.0623412
0.0645683
0.0653518
-0.0443533
-0.0432777
-0.0403785
-0.0356256
-0.0294626
-0.0223
-0.0144681
-0.00621083
0.00229965
0.0109423
0.0196258
0.0282684
0.0367789
0.0450361
0.0528681
0.0600307
0.0661936
0.0709465
0.0738457
0.0749214
-0.0563087
-0.0547209
-0.050794
-0.0446058
-0.036861
-0.0281363
-0.0188397
-0.00923292
0.000529011
0.0103594
0.0202087
0.030039
0.039801
0.0494077
0.0587043
0.067429
0.0751738
0.0813621
0.0852889
0.0868768
-0.0715276
-0.0689547
-0.0633722
-0.0550804
-0.0452037
-0.0345252
-0.0235118
-0.0124055
-0.00130801
0.00975814
0.0208099
0.0318761
0.0429735
0.0540799
0.0650933
0.0757718
0.0856485
0.0939402
0.0995228
0.102096
-0.0914709
-0.0868225
-0.078438
-0.0670106
-0.0542789
-0.0412142
-0.0282602
-0.0155615
-0.00311046
0.00917215
0.0213959
0.0336785
0.0461295
0.0588282
0.0717822
0.0848469
0.0975786
0.109006
0.117391
0.122039
-0.118777
-0.109364
-0.0960638
-0.079986
-0.0635592
-0.0477328
-0.0327264
-0.0184582
-0.00473983
0.00864629
0.0219218
0.0353079
0.0490263
0.0632945
0.0783008
0.0941273
0.110554
0.126632
0.139932
0.149345
-0.158673
-0.137434
-0.115461
-0.0928281
-0.072024
-0.0533391
-0.0364162
-0.0207896
-0.0060309
0.00823261
0.0223354
0.0365989
0.0513576
0.0669843
0.0839071
0.102592
0.123396
0.146029
0.168003
0.189241
-0.22253
-0.169933
-0.133592
-0.103045
-0.0780549
-0.0570616
-0.038763
-0.0222352
-0.00682028
0.00798127
0.0225868
0.0373883
0.0528033
0.0693311
0.0876297
0.108623
0.133613
0.164161
0.200501
0.253098
-0.367602
-0.213218
-0.148373
-0.108816
-0.0807344
-0.0585062
-0.039613
-0.0227415
-0.0070923
0.00789522
0.0226728
0.0376603
0.0533095
0.0701811
0.0890743
0.111302
0.139384
0.178941
0.243786
0.39817
)
;

boundaryField
{
    movingWall
    {
        type            zeroGradient;
    }
    fixedWalls
    {
        type            zeroGradient;
    }
    frontAndBack
    {
        type            empty;
    }
}


// ************************************************************************* //
