/*--------------------------------*- C++ -*----------------------------------*\
  =========                 |
  \\      /  F ield         | OpenFOAM: The Open Source CFD Toolbox
   \\    /   O peration     | Website:  https://openfoam.org
    \\  /    A nd           | Version:  13
     \\/     M anipulation  |
\*---------------------------------------------------------------------------*/
FoamFile
{
    format      ascii;
    class       surfaceScalarField;
    location    "1";
    object      phi;
}
// * * * * * * * * * * * * * * * * * * * * * * * * * * * * * * * * * * * * * //

dimensions      [0 3 -1 0 0 0 0];

internalField   nonuniform List<scalar> 
760
(
-1.32927e-05
1.32924e-05
-5.43579e-05
4.10652e-05
-9.51494e-05
4.07915e-05
-0.000133374
3.82245e-05
-0.000167696
3.43225e-05
-0.000197105
2.9409e-05
-0.000220796
2.36911e-05
-0.000238152
1.73562e-05
-0.000248738
1.05859e-05
-0.000252295
3.55713e-06
-0.000248738
-3.55715e-06
-0.000238153
-1.05859e-05
-0.000220797
-1.73561e-05
-0.000197105
-2.36909e-05
-0.000167696
-2.94089e-05
-0.000133374
-3.43225e-05
-9.51495e-05
-3.82243e-05
-5.43578e-05
-4.07914e-05
-1.32925e-05
-4.10655e-05
-1.32926e-05
-4.21372e-05
5.54296e-05
-0.000213687
0.000212615
-0.00037737
0.000204475
-0.000529455
0.00019031
-0.000665717
0.000170585
-0.000782372
0.000146064
-0.000876297
0.000117616
-0.00094508
8.61394e-05
-0.000987022
5.25271e-05
-0.00100111
1.76487e-05
-0.000987022
-1.76485e-05
-0.000945081
-5.25268e-05
-0.000876298
-8.61393e-05
-0.000782373
-0.000117616
-0.000665717
-0.000146064
-0.000529455
-0.000170584
-0.00037737
-0.00019031
-0.000213687
-0.000204474
-4.21367e-05
-0.000212615
-5.54298e-05
-4.51715e-05
0.000100601
-0.000221822
0.000389265
-0.000391527
0.00037418
-0.000549171
0.000347955
-0.000690226
0.00031164
-0.000810809
0.000266647
-0.000907762
0.000214569
-0.00097868
0.000157058
-0.00102189
9.57338e-05
-0.0010364
3.21591e-05
-0.00102189
-3.21588e-05
-0.000978681
-9.57334e-05
-0.000907763
-0.000157057
-0.000810809
-0.000214569
-0.000690227
-0.000266646
-0.000549172
-0.00031164
-0.000391527
-0.000347954
-0.000221823
-0.000374179
-4.51715e-05
-0.000389265
-0.000100601
-4.85544e-05
0.000149156
-0.000236896
0.000577607
-0.000417736
0.000555019
-0.000585465
0.000515684
-0.000735196
0.000461371
-0.00086286
0.00039431
-0.000965246
0.000316956
-0.00103998
0.000231787
-0.00108543
0.00014119
-0.00110069
4.74125e-05
-0.00108543
-4.7412e-05
-0.00103998
-0.00014119
-0.000965247
-0.000231787
-0.000862861
-0.000316955
-0.000735197
-0.00039431
-0.000585466
-0.000461371
-0.000417736
-0.000515684
-0.000236897
-0.000555019
-4.85546e-05
-0.000577607
-0.000149155
-5.32726e-05
0.000202428
-0.000259458
0.000783793
-0.000457032
0.000752594
-0.000639731
0.000698383
-0.000802203
0.000623843
-0.000940155
0.000532263
-0.00105035
0.000427152
-0.00113051
0.000311943
-0.00117914
0.000189828
-0.00119544
6.37117e-05
-0.00117915
-6.37111e-05
-0.00113051
-0.000189827
-0.00105035
-0.000311943
-0.000940156
-0.000427151
-0.000802204
-0.000532262
-0.000639732
-0.000623843
-0.000457033
-0.000698383
-0.000259458
-0.000752593
-5.32726e-05
-0.000783793
-0.000202428
-5.97333e-05
0.000262161
-0.000290594
0.00101465
-0.000511154
0.000973154
-0.00071416
0.00090139
-0.000893657
0.00080334
-0.00104513
0.000683735
-0.00116541
0.000547437
-0.00125247
0.000399002
-0.00130511
0.000242463
-0.00132271
8.13176e-05
-0.00130511
-8.13169e-05
-0.00125247
-0.000242462
-0.00116542
-0.000399001
-0.00104513
-0.000547436
-0.000893658
-0.000683734
-0.000714161
-0.00080334
-0.000511154
-0.000901389
-0.000290594
-0.000973153
-5.97335e-05
-0.00101465
-0.000262161
-6.83317e-05
0.000330493
-0.000331944
0.00127827
-0.000582706
0.00122392
-0.000811951
0.00113063
-0.00101297
0.00100436
-0.00118111
0.000851875
-0.00131351
0.000679843
-0.00140867
0.000494156
-0.0014659
0.000299698
-0.001485
0.000100411
-0.0014659
-0.00010041
-0.00140867
-0.000299697
-0.00131352
-0.000494156
-0.00118111
-0.000679843
-0.00101297
-0.000851875
-0.000811951
-0.00100436
-0.000582707
-0.00113063
-0.000331945
-0.00122392
-6.83318e-05
-0.00127827
-0.000330493
-7.96209e-05
0.000410114
-0.00038594
0.00158459
-0.000675491
0.00151347
-0.000937619
0.00139276
-0.00116476
0.0012315
-0.0013524
0.00103951
-0.00149843
0.000825871
-0.00160234
0.000598063
-0.00166439
0.000361752
-0.00168501
0.000121034
-0.00166439
-0.000121034
-0.00160234
-0.000361752
-0.00149843
-0.000598063
-0.0013524
-0.000825871
-0.00116477
-0.00103951
-0.00093762
-0.0012315
-0.000675492
-0.00139276
-0.000385941
-0.00151347
-7.9621e-05
-0.00158459
-0.000410114
-9.44453e-05
0.000504559
-0.000456215
0.00194636
-0.000795018
0.00185227
-0.00109745
0.0016952
-0.00135515
0.00148921
-0.00156433
0.00124869
-0.00172445
0.000985998
-0.00183683
0.000710433
-0.00190327
0.000428195
-0.00192524
0.000143001
-0.00190327
-0.000143001
-0.00183683
-0.000428195
-0.00172446
-0.000710434
-0.00156433
-0.000985998
-0.00135516
-0.00124869
-0.00109745
-0.0014892
-0.000795019
-0.0016952
-0.000456215
-0.00185227
-9.44454e-05
-0.00194636
-0.000504559
-0.000114144
0.000618703
-0.000548284
0.0023805
-0.000949304
0.00225329
-0.00130009
0.00204598
-0.00159194
0.00178106
-0.00182305
0.00147979
-0.00199591
0.00115886
-0.00211488
0.000829401
-0.00218424
0.000497557
-0.002207
0.000165765
-0.00218424
-0.000165765
-0.00211488
-0.000497557
-0.00199591
-0.000829401
-0.00182305
-0.00115886
-0.00159194
-0.00147979
-0.00130009
-0.00178106
-0.000949305
-0.00204598
-0.000548284
-0.00225329
-0.000114144
-0.0023805
-0.000618703
-0.000140922
0.000759626
-0.000670652
0.00291023
-0.00114999
0.00273263
-0.00155713
0.00245312
-0.00188451
0.00210844
-0.00213479
0.00173007
-0.00231591
0.00133998
-0.00243711
0.000950607
-0.00250635
0.000566797
-0.00252884
0.000188245
-0.00250635
-0.000188246
-0.00243711
-0.000566797
-0.00231591
-0.000950607
-0.00213479
-0.00133998
-0.00188451
-0.00173007
-0.00155713
-0.00210844
-0.00114999
-0.00245312
-0.000670653
-0.00273263
-0.000140922
-0.00291023
-0.000759626
-0.000178568
0.000938193
-0.000836599
0.00356826
-0.00141371
0.00330974
-0.00188325
0.00292265
-0.00224261
0.00246781
-0.00250362
0.00199108
-0.0026835
0.00151985
-0.00279887
0.00106598
-0.00286273
0.000630658
-0.00288312
0.000208631
-0.00286273
-0.000208631
-0.00279887
-0.000630658
-0.0026835
-0.00106598
-0.00250363
-0.00151985
-0.00224261
-0.00199108
-0.00188325
-0.00246781
-0.00141371
-0.00292265
-0.000836599
-0.00330974
-0.000178568
-0.00356826
-0.000938193
-0.000233907
0.0011721
-0.00106688
0.00440123
-0.00176313
0.00400598
-0.00229439
0.00345391
-0.00267211
0.00284553
-0.00292573
0.00224471
-0.00308727
0.00168139
-0.00318363
0.00116234
-0.00323399
0.000681015
-0.00324955
0.000224196
-0.00323399
-0.000224197
-0.00318363
-0.000681016
-0.00308727
-0.00116234
-0.00292573
-0.00168139
-0.00267211
-0.00224471
-0.00229439
-0.00284553
-0.00176313
-0.00345392
-0.00106688
-0.00400599
-0.000233907
-0.00440123
-0.0011721
-0.000319947
0.00149205
-0.00139326
0.00547455
-0.00222502
0.00483774
-0.00279983
0.00402872
-0.00316305
0.00320875
-0.00337564
0.0024573
-0.00349122
0.00179697
-0.00354909
0.00122021
-0.00357462
0.000706546
-0.00358168
0.000231248
-0.00357462
-0.000231248
-0.0035491
-0.000706546
-0.00349122
-0.00122021
-0.00337564
-0.00179697
-0.00316305
-0.0024573
-0.00279983
-0.00320875
-0.00222502
-0.00402872
-0.00139326
-0.00483774
-0.000319947
-0.00547455
-0.00149205
-0.000463174
0.00195522
-0.00186087
0.00687224
-0.00281769
0.00579457
-0.00337747
0.00458851
-0.00365916
0.00349043
-0.00377453
0.00257267
-0.00380384
0.00182628
-0.00379748
0.00121385
-0.00378418
0.000693251
-0.00377831
0.000225379
-0.00378418
-0.000225379
-0.00379748
-0.000693251
-0.00380384
-0.00121385
-0.00377453
-0.00182628
-0.00365916
-0.00257267
-0.00337748
-0.00349043
-0.00281769
-0.00458851
-0.00186087
-0.00579457
-0.000463175
-0.00687224
-0.00195522
-0.000721821
0.00267704
-0.00251925
0.00866966
-0.00350381
0.00677913
-0.00390584
0.00499054
-0.00398478
0.00356937
-0.00391927
0.00250715
-0.00381078
0.0017178
-0.00371107
0.00111414
-0.0036445
0.000626681
-0.00362138
0.000202257
-0.0036445
-0.000202257
-0.00371107
-0.000626681
-0.00381078
-0.00111414
-0.00391927
-0.0017178
-0.00398478
-0.00250715
-0.00390584
-0.00356937
-0.00350381
-0.00499054
-0.00251925
-0.00677913
-0.000721821
-0.00866966
-0.00267704
-0.00123435
0.00391139
-0.00336117
0.0107965
-0.00404243
0.00746039
-0.00399116
0.00493927
-0.00367746
0.00325568
-0.00332659
0.00215628
-0.00302793
0.00141914
-0.00281047
0.000896674
-0.00268035
0.000496565
-0.0026372
0.000159105
-0.00268035
-0.000159105
-0.00281047
-0.000496565
-0.00302793
-0.000896674
-0.00332659
-0.00141914
-0.00367746
-0.00215628
-0.00399116
-0.00325568
-0.00404243
-0.00493927
-0.00336117
-0.00746039
-0.00123435
-0.0107965
-0.00391139
-0.00234906
0.00626045
-0.00405205
0.0124995
-0.00356537
0.00697371
-0.00255576
0.00392966
-0.00161965
0.00231957
-0.000895113
0.00143174
-0.000378586
0.000902615
-3.79274e-05
0.000556016
0.00015503
0.000303608
0.000217464
9.667e-05
0.000155029
-9.66698e-05
-3.79282e-05
-0.000303608
-0.000378587
-0.000556016
-0.000895114
-0.000902615
-0.00161965
-0.00143174
-0.00255576
-0.00231957
-0.00356537
-0.00392966
-0.00405205
-0.00697371
-0.00234906
-0.0124995
-0.00626045
-0.00492602
0.0111865
-0.00287238
0.0104458
0.000534439
0.0035669
0.00307153
0.00139257
0.00474445
0.000646645
0.00582756
0.00034863
0.00652505
0.000205129
0.0069589
0.000122165
0.00719686
6.56459e-05
0.00727276
2.07668e-05
0.00719686
-2.07669e-05
0.0069589
-6.5646e-05
0.00652505
-0.000122165
0.00582756
-0.000205129
0.00474445
-0.00034863
0.00307152
-0.000646645
0.000534438
-0.00139257
-0.00287238
-0.0035669
-0.00492602
-0.0104458
-0.0111865
0.0111865
0.0216323
0.0251992
0.0265918
0.0272384
0.027587
0.0277922
0.0279143
0.02798
0.0280008
0.02798
0.0279143
0.0277922
0.027587
0.0272384
0.0265918
0.0251992
0.0216323
0.0111865
)
;

boundaryField
{
    movingWall
    {
        type            calculated;
        value           uniform 0;
    }
    fixedWalls
    {
        type            calculated;
        value           uniform 0;
    }
    frontAndBack
    {
        type            empty;
    }
}


// ************************************************************************* //
