/*--------------------------------*- C++ -*----------------------------------*\
  =========                 |
  \\      /  F ield         | OpenFOAM: The Open Source CFD Toolbox
   \\    /   O peration     | Website:  https://openfoam.org
    \\  /    A nd           | Version:  13
     \\/     M anipulation  |
\*---------------------------------------------------------------------------*/
FoamFile
{
    format      ascii;
    class       volVectorField;
    location    "1";
    object      U;
}
// * * * * * * * * * * * * * * * * * * * * * * * * * * * * * * * * * * * * * //

dimensions      [0 1 -1 0 0 0 0];

internalField   nonuniform List<vector> 
400
(
(-8.71609e-05 8.71604e-05 0)
(-0.000641328 0.000150145 0)
(-0.00134556 0.000149144 0)
(-0.00205671 0.000139758 0)
(-0.00270963 0.000125492 0)
(-0.00328321 0.000107527 0)
(-0.00376111 8.66205e-05 0)
(-0.00413053 6.34585e-05 0)
(-0.00438201 3.87047e-05 0)
(-0.0045093 1.30058e-05 0)
(-0.0045093 -1.30058e-05 0)
(-0.00438201 -3.87045e-05 0)
(-0.00413054 -6.34582e-05 0)
(-0.00376111 -8.662e-05 0)
(-0.00328321 -0.000107526 0)
(-0.00270963 -0.000125492 0)
(-0.00205671 -0.000139758 0)
(-0.00134556 -0.000149144 0)
(-0.000641324 -0.000150146 0)
(-8.71595e-05 -8.71614e-05 0)
(-0.000154054 0.00065097 0)
(-0.00252759 0.00250256 0)
(-0.0053195 0.00242537 0)
(-0.00816141 0.00226107 0)
(-0.0107565 0.00202758 0)
(-0.0130328 0.00173642 0)
(-0.014928 0.00139837 0)
(-0.0163924 0.00102421 0)
(-0.0173889 0.000624585 0)
(-0.0178932 0.000209861 0)
(-0.0178932 -0.00020986 0)
(-0.0173889 -0.000624582 0)
(-0.0163924 -0.0010242 0)
(-0.014928 -0.00139836 0)
(-0.0130328 -0.00173641 0)
(-0.0107565 -0.00202757 0)
(-0.00816142 -0.00226107 0)
(-0.0053195 -0.00242537 0)
(-0.00252758 -0.00250257 0)
(-0.000154052 -0.000650973 0)
(-0.000165132 0.00140428 0)
(-0.00264433 0.00541692 0)
(-0.00552012 0.00520789 0)
(-0.00846625 0.00484438 0)
(-0.0111545 0.00434002 0)
(-0.0135093 0.0037144 0)
(-0.0154671 0.00298967 0)
(-0.0169779 0.00218877 0)
(-0.0180051 0.00133435 0)
(-0.0185245 0.00044827 0)
(-0.0185245 -0.000448266 0)
(-0.0180051 -0.00133434 0)
(-0.0169779 -0.00218877 0)
(-0.0154671 -0.00298966 0)
(-0.0135093 -0.00371439 0)
(-0.0111546 -0.00434002 0)
(-0.00846626 -0.00484437 0)
(-0.00552013 -0.00520788 0)
(-0.00264434 -0.00541692 0)
(-0.000165132 -0.00140428 0)
(-0.000177465 0.00224781 0)
(-0.00282854 0.00870186 0)
(-0.00589163 0.00836279 0)
(-0.00902874 0.00777275 0)
(-0.0118859 0.0069571 0)
(-0.0143824 0.00594861 0)
(-0.0164529 0.00478373 0)
(-0.0180469 0.0034996 0)
(-0.0191286 0.00213232 0)
(-0.019675 0.000716145 0)
(-0.019675 -0.000716137 0)
(-0.0191286 -0.00213231 0)
(-0.0180469 -0.0034996 0)
(-0.0164529 -0.00478371 0)
(-0.0143824 -0.0059486 0)
(-0.0118859 -0.00695709 0)
(-0.00902875 -0.00777274 0)
(-0.00589164 -0.00836278 0)
(-0.00282855 -0.00870184 0)
(-0.000177465 -0.00224781 0)
(-0.00019463 0.00316425 0)
(-0.00309929 0.0122526 0)
(-0.00644828 0.0117685 0)
(-0.0098707 0.0109266 0)
(-0.0129772 0.00976693 0)
(-0.015681 0.00833916 0)
(-0.0179143 0.00669696 0)
(-0.0196275 0.00489358 0)
(-0.0207866 0.00297916 0)
(-0.0213711 0.00100012 0)
(-0.0213711 -0.00100011 0)
(-0.0207866 -0.00297915 0)
(-0.0196275 -0.00489356 0)
(-0.0179143 -0.00669695 0)
(-0.015681 -0.00833915 0)
(-0.0129772 -0.00976692 0)
(-0.00987071 -0.0109266 0)
(-0.00644829 -0.0117685 0)
(-0.0030993 -0.0122526 0)
(-0.00019463 -0.00316425 0)
(-0.00021805 0.00418131 0)
(-0.00347225 0.016186 0)
(-0.00721542 0.0155317 0)
(-0.0110274 0.014398 0)
(-0.0144699 0.0128447 0)
(-0.0174486 0.010944 0)
(-0.0198944 0.00877129 0)
(-0.0217605 0.00639851 0)
(-0.0230177 0.00389061 0)
(-0.0236499 0.00130526 0)
(-0.0236499 -0.00130525 0)
(-0.0230177 -0.0038906 0)
(-0.0217605 -0.0063985 0)
(-0.0198944 -0.00877128 0)
(-0.0174486 -0.010944 0)
(-0.0144699 -0.0128446 0)
(-0.0110274 -0.0143979 0)
(-0.00721543 -0.0155317 0)
(-0.00347225 -0.016186 0)
(-0.00021805 -0.0041813 0)
(-0.000249006 0.00533389 0)
(-0.00396787 0.0206363 0)
(-0.00823112 0.0197736 0)
(-0.012551 0.0182882 0)
(-0.0164232 0.0162693 0)
(-0.0197455 0.0138205 0)
(-0.0224504 0.0110455 0)
(-0.0244984 0.00803843 0)
(-0.0258699 0.00487945 0)
(-0.0265569 0.00163556 0)
(-0.0265569 -0.00163554 0)
(-0.0258699 -0.00487943 0)
(-0.0244984 -0.00803842 0)
(-0.0224504 -0.0110455 0)
(-0.0197455 -0.0138205 0)
(-0.0164232 -0.0162693 0)
(-0.012551 -0.0182882 0)
(-0.00823114 -0.0197736 0)
(-0.00396788 -0.0206363 0)
(-0.000249006 -0.00533389 0)
(-0.000289129 0.00666546 0)
(-0.00461608 0.0257657 0)
(-0.00955113 0.0246364 0)
(-0.0145158 0.0227106 0)
(-0.0189189 0.0201227 0)
(-0.0226518 0.0170225 0)
(-0.0256547 0.0135514 0)
(-0.027904 0.00982998 0)
(-0.0293976 0.00595306 0)
(-0.0301417 0.001993 0)
(-0.0301417 -0.00199299 0)
(-0.0293976 -0.00595305 0)
(-0.027904 -0.00982997 0)
(-0.0256547 -0.0135514 0)
(-0.0226518 -0.0170225 0)
(-0.0189189 -0.0201227 0)
(-0.0145158 -0.0227106 0)
(-0.00955114 -0.0246364 0)
(-0.00461609 -0.0257657 0)
(-0.000289129 -0.00666546 0)
(-0.000340561 0.00823206 0)
(-0.00546193 0.0317785 0)
(-0.0112569 0.0302916 0)
(-0.017027 0.0277916 0)
(-0.0220676 0.0244864 0)
(-0.0262691 0.0205938 0)
(-0.0295926 0.0163068 0)
(-0.0320449 0.0117765 0)
(-0.0336542 0.00710953 0)
(-0.0344499 0.00237631 0)
(-0.0344499 -0.00237631 0)
(-0.0336542 -0.00710953 0)
(-0.032045 -0.0117765 0)
(-0.0295926 -0.0163068 0)
(-0.0262691 -0.0205938 0)
(-0.0220676 -0.0244864 0)
(-0.017027 -0.0277916 0)
(-0.0112569 -0.0302916 0)
(-0.00546194 -0.0317785 0)
(-0.000340562 -0.00823206 0)
(-0.000405894 0.0101094 0)
(-0.00657481 0.0389417 0)
(-0.0134682 0.0369501 0)
(-0.0202321 0.0336706 0)
(-0.0260145 0.0294324 0)
(-0.0307203 0.0245563 0)
(-0.0343557 0.0193037 0)
(-0.036982 0.0138585 0)
(-0.0386769 0.00833177 0)
(-0.039506 0.00277889 0)
(-0.039506 -0.00277889 0)
(-0.0386769 -0.00833177 0)
(-0.036982 -0.0138585 0)
(-0.0343557 -0.0193037 0)
(-0.0307204 -0.0245563 0)
(-0.0260145 -0.0294324 0)
(-0.0202322 -0.0336706 0)
(-0.0134682 -0.0369501 0)
(-0.00657482 -0.0389417 0)
(-0.000405895 -0.0101094 0)
(-0.000487528 0.012405 0)
(-0.00806415 0.0476165 0)
(-0.0163615 0.0448732 0)
(-0.0243346 0.0404919 0)
(-0.0309424 0.0350055 0)
(-0.0361399 0.0288887 0)
(-0.0400219 0.0224896 0)
(-0.0427425 0.0160201 0)
(-0.0444565 0.00957918 0)
(-0.0452819 0.00318609 0)
(-0.0452819 -0.0031861 0)
(-0.0444565 -0.00957919 0)
(-0.0427425 -0.0160201 0)
(-0.0400219 -0.0224896 0)
(-0.03614 -0.0288887 0)
(-0.0309424 -0.0350055 0)
(-0.0243346 -0.0404919 0)
(-0.0163615 -0.0448732 0)
(-0.00806415 -0.0476165 0)
(-0.000487528 -0.012405 0)
(-0.000585218 0.0152804 0)
(-0.0101066 0.0583063 0)
(-0.0201938 0.0543813 0)
(-0.0296026 0.048382 0)
(-0.0370571 0.0411862 0)
(-0.042638 0.0334904 0)
(-0.046605 0.0257385 0)
(-0.0492619 0.0181493 0)
(-0.0508749 0.0107771 0)
(-0.0516331 0.00357189 0)
(-0.0516331 -0.0035719 0)
(-0.0508749 -0.0107771 0)
(-0.0492619 -0.0181493 0)
(-0.046605 -0.0257385 0)
(-0.042638 -0.0334904 0)
(-0.0370571 -0.0411862 0)
(-0.0296027 -0.048382 0)
(-0.0201938 -0.0543813 0)
(-0.0101066 -0.0583063 0)
(-0.000585219 -0.0152804 0)
(-0.000688282 0.0189926 0)
(-0.0129929 0.0717254 0)
(-0.0253263 0.0658415 0)
(-0.0363511 0.0573891 0)
(-0.0445218 0.04782 0)
(-0.0502001 0.0381221 0)
(-0.0539354 0.0288112 0)
(-0.0562563 0.0200549 0)
(-0.0575768 0.0118051 0)
(-0.0581702 0.00389544 0)
(-0.0581702 -0.00389545 0)
(-0.0575768 -0.0118051 0)
(-0.0562563 -0.0200549 0)
(-0.0539354 -0.0288112 0)
(-0.0502001 -0.0381221 0)
(-0.0445218 -0.0478201 0)
(-0.0363512 -0.0573891 0)
(-0.0253263 -0.0658415 0)
(-0.0129929 -0.0717254 0)
(-0.000688282 -0.0189926 0)
(-0.00075198 0.0239773 0)
(-0.0172085 0.088882 0)
(-0.0322123 0.0795936 0)
(-0.0448281 0.0673438 0)
(-0.0532543 0.0544885 0)
(-0.0584322 0.042318 0)
(-0.0613854 0.0313053 0)
(-0.062947 0.021443 0)
(-0.0636982 0.012488 0)
(-0.0639917 0.00409899 0)
(-0.0639917 -0.004099 0)
(-0.0636982 -0.0124881 0)
(-0.0629471 -0.021443 0)
(-0.0613854 -0.0313053 0)
(-0.0584322 -0.042318 0)
(-0.0532543 -0.0544885 0)
(-0.0448281 -0.0673438 0)
(-0.0322123 -0.0795936 0)
(-0.0172085 -0.088882 0)
(-0.00075198 -0.0239773 0)
(-0.000625637 0.0310254 0)
(-0.0235653 0.111121 0)
(-0.041241 0.0956908 0)
(-0.0548188 0.0775551 0)
(-0.0623742 0.0602927 0)
(-0.0659474 0.0452697 0)
(-0.0672527 0.0326093 0)
(-0.0674619 0.0219066 0)
(-0.0672865 0.0125982 0)
(-0.0671147 0.00410964 0)
(-0.0671147 -0.00410964 0)
(-0.0672865 -0.0125982 0)
(-0.0674619 -0.0219066 0)
(-0.0672527 -0.0326093 0)
(-0.0659474 -0.0452697 0)
(-0.0623742 -0.0602927 0)
(-0.0548188 -0.0775551 0)
(-0.041241 -0.0956908 0)
(-0.0235653 -0.111121 0)
(-0.000625638 -0.0310254 0)
(0.000177748 0.0416904 0)
(-0.0333946 0.139877 0)
(-0.0520769 0.113163 0)
(-0.0644758 0.0862115 0)
(-0.0688088 0.0635383 0)
(-0.068947 0.0457184 0)
(-0.0673939 0.0318967 0)
(-0.0655274 0.0209519 0)
(-0.0640344 0.0118794 0)
(-0.0632285 0.00384872 0)
(-0.0632285 -0.00384872 0)
(-0.0640344 -0.0118794 0)
(-0.0655274 -0.0209519 0)
(-0.0673939 -0.0318967 0)
(-0.068947 -0.0457184 0)
(-0.0688088 -0.0635383 0)
(-0.0644758 -0.0862115 0)
(-0.0520769 -0.113163 0)
(-0.0333947 -0.139877 0)
(0.000177747 -0.0416904 0)
(0.00329302 0.0592959 0)
(-0.0487292 0.175195 0)
(-0.0614179 0.128156 0)
(-0.0671363 0.0893684 0)
(-0.0639524 0.0614255 0)
(-0.0580366 0.0419709 0)
(-0.052224 0.0282324 0)
(-0.0475941 0.0180973 0)
(-0.0444722 0.0101092 0)
(-0.0429151 0.00325225 0)
(-0.0429151 -0.00325225 0)
(-0.0444722 -0.0101092 0)
(-0.0475941 -0.0180973 0)
(-0.0522241 -0.0282325 0)
(-0.0580367 -0.0419709 0)
(-0.0639524 -0.0614255 0)
(-0.0671363 -0.0893684 0)
(-0.0614179 -0.128156 0)
(-0.0487293 -0.175195 0)
(0.00329302 -0.0592959 0)
(0.0147474 0.0915466 0)
(-0.0720135 0.209664 0)
(-0.0559987 0.129907 0)
(-0.0431858 0.0798204 0)
(-0.0260323 0.0501772 0)
(-0.0112439 0.0322921 0)
(-0.000137712 0.0208958 0)
(0.00755248 0.0130742 0)
(0.0123459 0.00720156 0)
(0.0146414 0.00230197 0)
(0.0146414 -0.00230197 0)
(0.0123459 -0.00720156 0)
(0.00755246 -0.0130742 0)
(-0.00013773 -0.0208958 0)
(-0.0112439 -0.0322921 0)
(-0.0260323 -0.0501772 0)
(-0.0431858 -0.0798204 0)
(-0.0559987 -0.129907 0)
(-0.0720135 -0.209664 0)
(0.0147474 -0.0915466 0)
(0.0597679 0.184349 0)
(-0.103358 0.262328 0)
(0.00815641 0.113926 0)
(0.0593983 0.0553415 0)
(0.0965098 0.0301515 0)
(0.121058 0.0178863 0)
(0.136999 0.0110659 0)
(0.147153 0.00675645 0)
(0.15319 0.00367408 0)
(0.156012 0.0011679 0)
(0.156012 -0.0011679 0)
(0.15319 -0.00367408 0)
(0.147153 -0.00675645 0)
(0.136999 -0.0110659 0)
(0.121058 -0.0178863 0)
(0.0965097 -0.0301515 0)
(0.0593983 -0.0553415 0)
(0.0081564 -0.113926 0)
(-0.103358 -0.262328 0)
(0.0597679 -0.184349 0)
(0.303316 0.0733513 0)
(0.348825 0.0381926 0)
(0.485204 0.0130415 0)
(0.526089 0.00509158 0)
(0.543633 0.0023643 0)
(0.552399 0.00127468 0)
(0.557333 0.000750003 0)
(0.560265 0.000446667 0)
(0.561951 0.000240018 0)
(0.562727 7.59288e-05 0)
(0.562727 -7.59288e-05 0)
(0.561951 -0.000240018 0)
(0.560265 -0.000446667 0)
(0.557333 -0.000750002 0)
(0.552399 -0.00127468 0)
(0.543633 -0.0023643 0)
(0.526089 -0.00509158 0)
(0.485204 -0.0130415 0)
(0.348825 -0.0381926 0)
(0.303316 -0.0733513 0)
)
;

boundaryField
{
    movingWall
    {
        type            fixedValue;
        value           uniform (1 0 0);
    }
    fixedWalls
    {
        type            fixedValue;
        value           uniform (0 0 0);
    }
    frontAndBack
    {
        type            empty;
    }
}


// ************************************************************************* //
