/*--------------------------------*- C++ -*----------------------------------*\
  =========                 |
  \\      /  F ield         | OpenFOAM: The Open Source CFD Toolbox
   \\    /   O peration     | Website:  https://openfoam.org
    \\  /    A nd           | Version:  13
     \\/     M anipulation  |
\*---------------------------------------------------------------------------*/
FoamFile
{
    format      ascii;
    class       surfaceScalarField;
    location    "40";
    object      phi;
}
// * * * * * * * * * * * * * * * * * * * * * * * * * * * * * * * * * * * * * //

dimensions      [0 3 -1 0 0 0 0];

internalField   nonuniform List<scalar> 
760
(
4.60312e-06
-4.60288e-06
-3.88689e-05
4.34722e-05
-0.00013159
9.27207e-05
-0.000257609
0.00012602
-0.000400988
0.000143378
-0.000548325
0.000147338
-0.000687734
0.000139409
-0.000807463
0.000119728
-0.000895329
8.78672e-05
-0.000939429
4.41004e-05
-0.000930055
-9.375e-06
-0.000862469
-6.75858e-05
-0.000739726
-0.000122743
-0.000574563
-0.000165164
-0.000389207
-0.000185356
-0.000212313
-0.000176893
-7.30157e-05
-0.000139297
6.94994e-06
-7.99663e-05
2.2682e-05
-1.57325e-05
2.26826e-05
-4.73238e-05
4.27207e-05
-0.00020986
0.000206008
-0.000474165
0.000357025
-0.000807593
0.000459449
-0.0011758
0.000511586
-0.00154719
0.000518723
-0.0018922
0.000484423
-0.00218189
0.000409424
-0.00238784
0.000293809
-0.00248415
0.000140414
-0.00245157
-4.19562e-05
-0.00228258
-0.000236577
-0.00198643
-0.000418891
-0.00159212
-0.000559476
-0.0011476
-0.000629873
-0.000713732
-0.000610762
-0.000352559
-0.000500468
-0.000111468
-0.000321056
-5.85628e-06
-0.000121343
1.68274e-05
-0.000112048
0.000154769
-0.000406182
0.000500143
-0.000836184
0.000787026
-0.00135286
0.000976128
-0.00190918
0.0010679
-0.00246153
0.00107108
-0.00296855
0.000991446
-0.00338986
0.00083073
-0.00368663
0.000590578
-0.0038245
0.000278284
-0.0037785
-8.79532e-05
-0.0035391
-0.000475984
-0.00311802
-0.000839963
-0.00255225
-0.00112525
-0.00190385
-0.00127827
-0.00125372
-0.00126089
-0.000687717
-0.00106647
-0.000276414
-0.000732359
-5.33626e-05
-0.000344393
-3.65346e-05
-0.00017366
0.000328429
-0.000594865
0.000921346
-0.0011813
0.00137346
-0.00186482
0.00165965
-0.00258724
0.00179032
-0.00329677
0.00178061
-0.00394473
0.00163941
-0.0044838
0.0013698
-0.00486849
0.000975264
-0.00505811
0.00046791
-0.00502179
-0.000124271
-0.00474477
-0.000753001
-0.00423528
-0.00134946
-0.00353042
-0.00183011
-0.00269897
-0.00210972
-0.00183752
-0.00212234
-0.00105683
-0.00184716
-0.000457842
-0.00133134
-0.000103579
-0.000698653
-0.000140114
-0.000228509
0.000556937
-0.00076457
0.00145741
-0.00149267
0.00210156
-0.00232628
0.00249325
-0.00319756
0.0026616
-0.0040493
0.00263236
-0.00482906
0.00241916
-0.0054859
0.00202665
-0.00597009
0.00145945
-0.00623517
0.000732994
-0.0062424
-0.000117046
-0.00596699
-0.0010284
-0.00540645
-0.00191
-0.00458971
-0.00264685
-0.00358508
-0.00311436
-0.00250209
-0.00320532
-0.00148082
-0.00286844
-0.000664148
-0.00214801
-0.000158314
-0.00120449
-0.000298428
-0.000274745
0.000831682
-0.000908657
0.00209132
-0.00175846
0.00295136
-0.00272204
0.00345683
-0.00372414
0.00366371
-0.00470478
0.003613
-0.00561071
0.0033251
-0.0063903
0.00280624
-0.0069915
0.00206064
-0.0073624
0.0011039
-0.00745445
-2.49974e-05
-0.00722811
-0.00125474
-0.00666271
-0.0024754
-0.00576947
-0.00354009
-0.00460675
-0.00427708
-0.0032913
-0.00452077
-0.00199524
-0.0041645
-0.000916962
-0.00322629
-0.000225099
-0.00189635
-0.000523527
-0.000310473
0.00114215
-0.0010209
0.00280174
-0.00196702
0.00389748
-0.00303501
0.00452482
-0.0041449
0.0047736
-0.00523653
0.00470463
-0.00625869
0.00434726
-0.00716188
0.00370943
-0.00789414
0.0027929
-0.00839949
0.00160926
-0.00861898
0.000194504
-0.00849566
-0.00137807
-0.00798418
-0.00298688
-0.00706787
-0.0044564
-0.00578187
-0.00556308
-0.00423776
-0.00606488
-0.00263573
-0.00576653
-0.00124175
-0.00462027
-0.000313373
-0.00282474
-0.000836899
-0.000333793
0.00147595
-0.00109522
0.00356317
-0.00210649
0.00490875
-0.00324613
0.00566446
-0.00443214
0.00595961
-0.00560662
0.00587911
-0.00672316
0.0054638
-0.00773751
0.00472379
-0.00860118
0.00365656
-0.00925733
0.00226541
-0.00963931
0.000576485
-0.00967302
-0.00134437
-0.00928544
-0.00337446
-0.00842284
-0.00531901
-0.00708083
-0.00690509
-0.00534471
-0.007801
-0.00342624
-0.007685
-0.00166281
-0.0063837
-0.000433477
-0.00405407
-0.00127038
-0.00034346
0.00181941
-0.00112721
0.00434692
-0.00216704
0.00594858
-0.00333744
0.00683486
-0.00455663
0.0071788
-0.00577114
0.00709362
-0.00694199
0.00663466
-0.00803367
0.00581546
-0.0090056
0.0046285
-0.00980563
0.00306544
-0.0103654
0.00113629
-0.0105992
-0.00111057
-0.0104086
-0.00356513
-0.00969776
-0.00602981
-0.00840682
-0.00819603
-0.00656602
-0.0096418
-0.00436521
-0.00988581
-0.00219814
-0.00855077
-0.000596266
-0.00565594
-0.00186664
-0.000339986
0.00215939
-0.00111673
0.00512367
-0.00214493
0.00697678
-0.00329757
0.00798749
-0.0044949
0.00837613
-0.00568982
0.00828853
-0.00685328
0.00779812
-0.0079621
0.00692428
-0.00898885
0.00565525
-0.00989327
0.00396986
-0.0106147
0.00185773
-0.0110661
-0.000659213
-0.011133
-0.00349824
-0.0106808
-0.00648193
-0.00958401
-0.00929286
-0.00778727
-0.0114385
-0.00540834
-0.0122647
-0.00285158
-0.0111075
-0.000812495
-0.00769503
-0.00267914
-0.000327123
0.00248652
-0.00107146
0.00586801
-0.00204793
0.00795324
-0.003129
0.00906856
-0.00423878
0.00948591
-0.00533872
0.00938846
-0.00641231
0.00887172
-0.00745213
0.0079641
-0.00844893
0.00665206
-0.00938195
0.00490288
-0.0102092
0.00268494
-0.0108557
-1.26332e-05
-0.0112085
-0.00314548
-0.0111073
-0.00658313
-0.0103638
-0.0100363
-0.0088156
-0.0129868
-0.0064502
-0.0146301
-0.0036005
-0.0139572
-0.00109113
-0.0102044
-0.00377026
-0.000313784
0.0028003
-0.00101106
0.00656528
-0.00190098
0.00884315
-0.00285509
0.0100227
-0.00380432
0.0104351
-0.00472225
0.0103064
-0.00560813
0.0097576
-0.00647331
0.00882929
-0.00733063
0.00750937
-0.00818466
0.00575692
-0.00902107
0.00352134
-0.00979467
0.000760968
-0.0104095
-0.00253067
-0.0107072
-0.00628544
-0.0104571
-0.0102864
-0.0093891
-0.0140548
-0.00731253
-0.0167067
-0.00437935
-0.0168904
-0.00143537
-0.0131484
-0.00520563
-0.000316764
0.00311706
-0.000971864
0.00722038
-0.00175116
0.00962245
-0.00252462
0.0107961
-0.00323641
0.0111469
-0.00387902
0.010949
-0.00447205
0.0103506
-0.00504836
0.0094056
-0.00564465
0.00810567
-0.00629342
0.00640569
-0.00701369
0.00424161
-0.00779798
0.00154527
-0.00859171
-0.00173695
-0.00926652
-0.00561063
-0.00958892
-0.009964
-0.00921124
-0.0144325
-0.007749
-0.018169
-0.00506379
-0.0195756
-0.00183462
-0.0163776
-0.00704025
-0.000365197
0.00348226
-0.0010122
0.00786738
-0.0016699
0.0102802
-0.00220962
0.0113358
-0.00260295
0.0115402
-0.00287325
0.0112193
-0.00306727
0.0105447
-0.0032418
0.00958013
-0.003457
0.00832086
-0.00377166
0.00672034
-0.00423728
0.00470724
-0.00488816
0.00219615
-0.00572313
-0.00090198
-0.0066737
-0.00466005
-0.0075535
-0.0090842
-0.0079997
-0.0139863
-0.00746894
-0.0186997
-0.00546164
-0.0215829
-0.00225035
-0.0195889
-0.0092906
-0.000507328
0.00398959
-0.00121605
0.0085761
-0.00174554
0.0108096
-0.00198584
0.0115761
-0.00196488
0.0115193
-0.00175617
0.0110106
-0.00144255
0.010231
-0.00110667
0.00924425
-0.000829741
0.00804394
-0.000691853
0.00658246
-0.000771028
0.00478642
-0.00113896
0.00256408
-0.00184957
-0.000191377
-0.00291203
-0.00359759
-0.00423403
-0.0077622
-0.00552116
-0.0126991
-0.00616429
-0.0180566
-0.00530935
-0.0224378
-0.00259335
-0.0223049
-0.011884
-0.000812725
0.00480231
-0.00167968
0.00944305
-0.00203796
0.0111679
-0.00185714
0.0113953
-0.00127856
0.0109407
-0.000452899
0.0101849
0.000492058
0.00928608
0.001448
0.00828831
0.00231753
0.00717441
0.00300678
0.00589322
0.00342032
0.00437287
0.00345919
0.00252522
0.00302357
0.000244244
0.00202763
-0.00260165
0.000444148
-0.00617872
-0.0015813
-0.0106737
-0.00351554
-0.0161224
-0.00426304
-0.0216904
-0.00269014
-0.0238777
-0.0145741
-0.00134886
0.00615117
-0.00241858
0.0105128
-0.00238446
0.0111338
-0.00149373
0.0105046
-0.000102616
0.00954959
0.00153763
0.00854468
0.00325771
0.00756601
0.00493412
0.0066119
0.00646553
0.005643
0.0077567
0.00460205
0.00870742
0.00342215
0.00920527
0.00202737
0.00912109
0.000328429
0.00831126
-0.00179183
0.00663672
-0.00450417
0.00404843
-0.00808538
0.000842277
-0.0129162
-0.00188517
-0.0189629
-0.0022562
-0.0235067
-0.0168303
-0.00213529
0.00828646
-0.0029213
0.0112988
-0.00168587
0.00989838
0.000536652
0.00828206
0.00311784
0.0069684
0.00576699
0.00589553
0.00833087
0.00500213
0.0107127
0.0042301
0.0128379
0.00351779
0.0146332
0.00280672
0.0160129
0.00204243
0.0168702
0.00117012
0.0170681
0.000130544
0.016435
-0.00115876
0.0147557
-0.00282486
0.0117958
-0.00512552
0.00746439
-0.00858479
0.0024484
-0.0139469
-0.000883412
-0.0201749
-0.0177137
-0.00248782
0.0107743
-1.25407e-05
0.00882349
0.00417752
0.00570832
0.00832749
0.00413208
0.0121222
0.00317366
0.0155305
0.00248727
0.0185529
0.00197972
0.0211948
0.00158822
0.0234525
0.00126008
0.0253031
0.000956128
0.0266995
0.000646078
0.0275642
0.000305373
0.0277847
-8.99112e-05
0.0272013
-0.000575452
0.0255773
-0.00120079
0.022551
-0.00209924
0.0176207
-0.00365446
0.0104024
-0.00672859
0.00247562
-0.0122482
-0.0152381
0.0107743
0.0195978
0.0253061
0.0294382
0.0326118
0.0350991
0.0370788
0.0386671
0.0399271
0.0408833
0.0415293
0.0418347
0.0417448
0.0411694
0.0399686
0.0378693
0.0342149
0.0274863
0.0152381
)
;

boundaryField
{
    movingWall
    {
        type            calculated;
        value           uniform 0;
    }
    fixedWalls
    {
        type            calculated;
        value           uniform 0;
    }
    frontAndBack
    {
        type            empty;
    }
}


// ************************************************************************* //
