/*--------------------------------*- C++ -*----------------------------------*\
  =========                 |
  \\      /  F ield         | OpenFOAM: The Open Source CFD Toolbox
   \\    /   O peration     | Website:  https://openfoam.org
    \\  /    A nd           | Version:  13
     \\/     M anipulation  |
\*---------------------------------------------------------------------------*/
FoamFile
{
    format      ascii;
    class       surfaceScalarField;
    location    "40";
    object      phi_0;
}
// * * * * * * * * * * * * * * * * * * * * * * * * * * * * * * * * * * * * * //

dimensions      [0 3 -1 0 0 0 0];

internalField   nonuniform List<scalar> 
760
(
4.58532e-06
-4.58505e-06
-3.88708e-05
4.34563e-05
-0.00013154
9.26687e-05
-0.000257483
0.000125943
-0.00040077
0.000143286
-0.000548008
0.00014724
-0.000687322
0.000139313
-0.000806966
0.000119644
-0.000894771
8.78067e-05
-0.000938847
4.40752e-05
-0.000929491
-9.35618e-06
-0.000861971
-6.75204e-05
-0.000739333
-0.000122637
-0.000574299
-0.000165035
-0.000389074
-0.000185225
-0.000212287
-0.000176786
-7.30543e-05
-0.000139232
6.89614e-06
-7.99511e-05
2.2651e-05
-1.57553e-05
2.26516e-05
-4.72998e-05
4.27145e-05
-0.000209726
0.000205882
-0.000473853
0.000356794
-0.000807053
0.000459144
-0.00117501
0.000511242
-0.00154614
0.000518369
-0.00189092
0.000484091
-0.00218042
0.000409149
-0.00238624
0.000293628
-0.00248252
0.000140358
-0.00245001
-4.18663e-05
-0.0022812
-0.000236341
-0.0019853
-0.000418533
-0.00159129
-0.000559046
-0.00114707
-0.000629437
-0.000713469
-0.000610392
-0.000352482
-0.000500218
-0.000111482
-0.000320949
-5.88505e-06
-0.000121352
1.67678e-05
-0.000111965
0.000154679
-0.000405882
0.000499801
-0.00083557
0.000786481
-0.00135188
0.00097545
-0.00190779
0.00106716
-0.00245976
0.00107034
-0.00296644
0.000990772
-0.00338748
0.00083019
-0.0036841
0.000590239
-0.00382194
0.000278202
-0.00377606
-8.77471e-05
-0.0035369
-0.000475497
-0.00311619
-0.000839242
-0.00255085
-0.00112439
-0.00190289
-0.00127739
-0.00125317
-0.00126012
-0.000687469
-0.00106591
-0.000276351
-0.000732067
-5.33703e-05
-0.00034433
-3.66017e-05
-0.000173516
0.000328195
-0.000594395
0.000920678
-0.00118039
0.00137247
-0.00186341
0.00165847
-0.00258531
0.00178906
-0.00329435
0.00177938
-0.0039419
0.00163832
-0.00448065
0.00136894
-0.00486515
0.000974743
-0.00505475
0.000467804
-0.00501858
-0.000123923
-0.00474186
-0.000752213
-0.00423279
-0.00134831
-0.00352846
-0.00182873
-0.00269756
-0.00210829
-0.00183663
-0.00212104
-0.00105637
-0.00184618
-0.000457677
-0.00133076
-0.000103558
-0.000698447
-0.00014016
-0.000228313
0.000556508
-0.000763958
0.00145632
-0.00149151
0.00210002
-0.00232452
0.00249147
-0.0031952
0.00265975
-0.00404639
0.00263057
-0.00482567
0.0024176
-0.00548217
0.00202544
-0.00596615
0.00145873
-0.0062312
0.000732854
-0.00623856
-0.000116558
-0.00596347
-0.00102731
-0.00540338
-0.00190839
-0.00458721
-0.0026449
-0.00358321
-0.00311229
-0.00250086
-0.00320339
-0.00148013
-0.0028669
-0.000663868
-0.00214702
-0.000158261
-0.00120406
-0.00029842
-0.000274516
0.000831022
-0.000907956
0.00208976
-0.00175715
0.00294922
-0.00272008
0.0034544
-0.00372154
0.00366121
-0.00470159
0.00361063
-0.00560703
0.00332304
-0.00638625
0.00280466
-0.00698722
0.0020597
-0.00735806
0.0011037
-0.00745022
-2.44005e-05
-0.00722415
-0.00125337
-0.00665919
-0.00247336
-0.00576652
-0.00353756
-0.00460446
-0.00427434
-0.00328972
-0.00451814
-0.00199431
-0.00416231
-0.000916557
-0.00322478
-0.000225009
-0.00189561
-0.000523429
-0.000310236
0.00114126
-0.00102018
0.0027997
-0.00196569
0.00389473
-0.00303302
0.00452173
-0.00414228
0.00477046
-0.00523333
0.00470168
-0.00625502
0.00434472
-0.00715784
0.00370749
-0.00788987
0.00279172
-0.00839513
0.00160897
-0.00861468
0.000195158
-0.00849157
-0.00137649
-0.00798045
-0.00298448
-0.00706463
-0.00445337
-0.00577927
-0.00555971
-0.00423588
-0.00606153
-0.00263458
-0.00576361
-0.00124122
-0.00461814
-0.000313243
-0.00282359
-0.000836672
-0.000333579
0.00147484
-0.00109457
0.00356069
-0.00210528
0.00490544
-0.00324433
0.00566078
-0.00442977
0.0059559
-0.00560373
0.00587565
-0.00671985
0.00546084
-0.00773388
0.00472152
-0.00859733
0.00365518
-0.00925338
0.00226502
-0.00963537
0.000577147
-0.00966919
-0.00134267
-0.00928186
-0.00337182
-0.00841963
-0.00531561
-0.00707813
-0.0069012
-0.00534266
-0.007797
-0.00342492
-0.00768136
-0.00166216
-0.0063809
-0.000433306
-0.00405244
-0.00126998
-0.000343299
0.00181814
-0.00112671
0.00434411
-0.0021661
0.00594482
-0.00333602
0.00683071
-0.00455476
0.00717464
-0.00576888
0.00708977
-0.00693941
0.00663137
-0.00803086
0.00581296
-0.00900263
0.00462696
-0.00980258
0.00306497
-0.0103624
0.00113693
-0.0105962
-0.00110884
-0.0104056
-0.00356239
-0.009695
-0.00602623
-0.00840437
-0.00819184
-0.00656403
-0.00963734
-0.00436383
-0.00988156
-0.00219741
-0.00854732
-0.000596055
-0.00565379
-0.00186603
-0.000339905
0.00215804
-0.00111646
0.00512066
-0.00214439
0.00697276
-0.00329673
0.00798305
-0.00449379
0.0083717
-0.00568848
0.00828445
-0.00685178
0.00779467
-0.0079605
0.00692168
-0.00898719
0.00565365
-0.00989159
0.00396937
-0.010613
0.00185835
-0.0110643
-0.000657506
-0.0111312
-0.00349555
-0.010679
-0.00647839
-0.00958224
-0.00928864
-0.00778566
-0.0114339
-0.00540708
-0.0122601
-0.00285085
-0.0111036
-0.000812254
-0.00769239
-0.00267829
-0.00032714
0.00248518
-0.00107147
0.00586498
-0.00204788
0.00794917
-0.00312888
0.00906404
-0.0042386
0.00948142
-0.00533851
0.00938435
-0.00641212
0.00886828
-0.00745199
0.00796155
-0.00844887
0.00665054
-0.00938196
0.00490246
-0.0102092
0.0026856
-0.0108557
-1.0976e-05
-0.0112083
-0.00314294
-0.0111069
-0.00657982
-0.0103632
-0.0100324
-0.00881474
-0.0129823
-0.00644934
-0.0146256
-0.00359988
-0.013953
-0.00109088
-0.0102014
-0.00376917
-0.000313906
0.00279909
-0.00101137
0.00656244
-0.00190147
0.00883927
-0.00285575
0.0100183
-0.00380515
0.0104308
-0.00472326
0.0103025
-0.00560933
0.00975436
-0.00647472
0.00882695
-0.00733224
0.00750805
-0.00818643
0.00575665
-0.0090229
0.00352207
-0.00979646
0.000762582
-0.0104111
-0.00252832
-0.0107084
-0.00628249
-0.0104579
-0.0102829
-0.0093893
-0.0140509
-0.00731231
-0.0167025
-0.00437899
-0.0168863
-0.00143516
-0.0131452
-0.00520433
-0.000316982
0.00311607
-0.000972454
0.00721791
-0.00175217
0.00961898
-0.00252603
0.0107922
-0.00323821
0.011143
-0.00388119
0.0109454
-0.00447456
0.0103477
-0.00505118
0.00940357
-0.00564773
0.00810461
-0.0062967
0.00640561
-0.00701705
0.00424244
-0.00780131
0.00154684
-0.00859483
-0.00173481
-0.00926922
-0.00560809
-0.00959101
-0.00996116
-0.00921258
-0.0144293
-0.00774959
-0.0181655
-0.00506384
-0.0195721
-0.0018345
-0.0163746
-0.00703884
-0.000365492
0.00348156
-0.00101302
0.00786544
-0.00167135
0.0102773
-0.00221168
0.0113325
-0.00260557
0.0115369
-0.00287637
0.0112162
-0.00307083
0.0105422
-0.0032457
0.00957845
-0.00346115
0.00832006
-0.00377596
0.00672042
-0.00424164
0.00470811
-0.00489244
0.00219765
-0.00572719
-0.000900057
-0.00667737
-0.00465791
-0.00755658
-0.00908195
-0.00800198
-0.0139839
-0.00747029
-0.0186972
-0.00546216
-0.0215802
-0.00225037
-0.0195864
-0.0092892
-0.000507665
0.00398922
-0.00121701
0.00857479
-0.00174726
0.0108075
-0.00198831
0.0115736
-0.00196805
0.0115166
-0.00175992
0.0110081
-0.00144675
0.010229
-0.00111119
0.00924289
-0.000834448
0.00804332
-0.000696613
0.00658259
-0.000775727
0.00478723
-0.0011435
0.00256542
-0.00185386
-0.000189707
-0.00291596
-0.00359581
-0.00423745
-0.00776046
-0.00552388
-0.0126975
-0.00616613
-0.018055
-0.00531026
-0.0224361
-0.00259354
-0.0223031
-0.0118827
-0.000813048
0.00480227
-0.00168063
0.00944237
-0.00203971
0.0111666
-0.0018597
0.0113935
-0.00128186
0.0109388
-0.000456809
0.0101831
0.0004877
0.00928452
0.00144337
0.00828721
0.0023128
0.00717389
0.00300209
0.0058933
0.00341582
0.00437351
0.00345494
0.0025263
0.00301964
0.000245597
0.00202406
-0.00260023
0.000441006
-0.0061774
-0.00158391
-0.0106726
-0.00351746
-0.0161214
-0.00426413
-0.0216894
-0.00269049
-0.0238767
-0.0145732
-0.00134908
0.00615135
-0.00241932
0.0105126
-0.00238589
0.0111332
-0.00149591
0.0105036
-0.000105508
0.00954835
0.00153415
0.00854341
0.00325378
0.00756488
0.00492994
0.00661106
0.00646127
0.00564256
0.00775253
0.00460205
0.00870347
0.00342257
0.00920164
0.00202813
0.00911784
0.000329402
0.00830841
-0.0017908
0.00663425
-0.00450325
0.00404637
-0.00808468
0.000840688
-0.0129157
-0.00188619
-0.0189625
-0.00225658
-0.0235063
-0.0168298
-0.00213533
0.00828668
-0.00292162
0.0112989
-0.00168664
0.00989823
0.000535308
0.00828162
0.0031159
0.00696776
0.00576451
0.00589481
0.00832794
0.00500145
0.0107094
0.00422957
0.0128345
0.00351748
0.0146299
0.00280669
0.0160098
0.00204268
0.0168673
0.00117058
0.0170656
0.000131126
0.0164329
-0.00115816
0.014754
-0.00282435
0.0117945
-0.00512517
0.0074634
-0.00858463
0.00244772
-0.0139469
-0.000883727
-0.0201749
-0.0177136
-0.00248771
0.0107744
-1.24476e-05
0.00882363
0.00417745
0.00570833
0.00832713
0.00413195
0.0121215
0.00317343
0.0155293
0.002487
0.0185512
0.00197947
0.0211928
0.00158803
0.0234503
0.00125999
0.0253008
0.000956152
0.0266973
0.000646197
0.0275623
0.000305563
0.0277831
-8.96777e-05
0.0272002
-0.000575231
0.0255765
-0.00120062
0.0225505
-0.00209916
0.0176203
-0.00365448
0.0104021
-0.00672864
0.00247546
-0.0122482
-0.0152381
0.0107744
0.019598
0.0253064
0.0294383
0.0326117
0.0350987
0.0370782
0.0386662
0.0399262
0.0408824
0.0415286
0.0418341
0.0417444
0.0411692
0.0399686
0.0378694
0.034215
0.0274863
0.0152381
)
;

boundaryField
{
    movingWall
    {
        type            calculated;
        value           uniform 0;
    }
    fixedWalls
    {
        type            calculated;
        value           uniform 0;
    }
    frontAndBack
    {
        type            empty;
    }
}


// ************************************************************************* //
