/*--------------------------------*- C++ -*----------------------------------*\
  =========                 |
  \\      /  F ield         | OpenFOAM: The Open Source CFD Toolbox
   \\    /   O peration     | Website:  https://openfoam.org
    \\  /    A nd           | Version:  13
     \\/     M anipulation  |
\*---------------------------------------------------------------------------*/
FoamFile
{
    format      ascii;
    class       volVectorField;
    location    "20";
    object      U;
}
// * * * * * * * * * * * * * * * * * * * * * * * * * * * * * * * * * * * * * //

dimensions      [0 1 -1 0 0 0 0];

internalField   nonuniform List<vector> 
400
(
(0.000153674 -0.000156773 0)
(-0.000172724 5.11754e-05 0)
(-0.00149076 0.000273419 0)
(-0.00359404 0.000415542 0)
(-0.00616165 0.000489421 0)
(-0.00891186 0.000514468 0)
(-0.011612 0.000500333 0)
(-0.0140485 0.000447179 0)
(-0.0160055 0.00035011 0)
(-0.0172639 0.000205307 0)
(-0.0176233 1.63273e-05 0)
(-0.0169439 -0.000201009 0)
(-0.0151984 -0.000416412 0)
(-0.0125181 -0.000588272 0)
(-0.00921436 -0.000672489 0)
(-0.00575603 -0.000635986 0)
(-0.00269437 -0.000470263 0)
(-0.000536442 -0.000200226 0)
(0.000426137 0.000100958 0)
(0.000274335 0.00026811 0)
(-6.37769e-05 0.000170399 0)
(-0.00194534 0.00182774 0)
(-0.005984 0.00351368 0)
(-0.0116679 0.00467283 0)
(-0.0183058 0.00527506 0)
(-0.0252746 0.00539192 0)
(-0.032017 0.00507529 0)
(-0.0380033 0.00433788 0)
(-0.042711 0.00317585 0)
(-0.0456375 0.00160761 0)
(-0.0463531 -0.000287023 0)
(-0.0445861 -0.00233981 0)
(-0.0403203 -0.0042901 0)
(-0.0338782 -0.00581372 0)
(-0.025953 -0.00658775 0)
(-0.0175599 -0.00638328 0)
(-0.0098824 -0.00516334 0)
(-0.00402065 -0.00315858 0)
(-0.000668901 -0.000927486 0)
(0.000179947 0.000473037 0)
(-0.000343151 0.00163706 0)
(-0.00412327 0.00601745 0)
(-0.0109209 0.00989612 0)
(-0.0198643 0.0125111 0)
(-0.0299644 0.0138188 0)
(-0.0403789 0.0139399 0)
(-0.0503383 0.0129671 0)
(-0.0591012 0.0109328 0)
(-0.0659415 0.00785586 0)
(-0.0701758 0.00381926 0)
(-0.0712326 -0.000952775 0)
(-0.0687552 -0.00604483 0)
(-0.0627176 -0.0108487 0)
(-0.053527 -0.0146267 0)
(-0.0420739 -0.0166491 0)
(-0.0296911 -0.0163926 0)
(-0.0179811 -0.013759 0)
(-0.00850861 -0.00924723 0)
(-0.00241536 -0.00403977 0)
(-4.32051e-07 -0.000139355 0)
(-0.000594582 0.00426424 0)
(-0.00621014 0.0126213 0)
(-0.0156493 0.0192939 0)
(-0.0276172 0.023629 0)
(-0.0408249 0.0256827 0)
(-0.0542648 0.0256609 0)
(-0.067034 0.0237066 0)
(-0.0782609 0.0198775 0)
(-0.087089 0.014225 0)
(-0.0927064 0.00691642 0)
(-0.0944171 -0.00164997 0)
(-0.0917483 -0.0107685 0)
(-0.0845806 -0.0194206 0)
(-0.0732777 -0.0263653 0)
(-0.0587841 -0.030346 0)
(-0.0426367 -0.0304092 0)
(-0.0268235 -0.0262819 0)
(-0.0134529 -0.0186907 0)
(-0.00429571 -0.00948934 0)
(-0.00015581 -0.001669 0)
(-0.000811295 0.00794658 0)
(-0.00808868 0.0214451 0)
(-0.0199498 0.0314329 0)
(-0.0346838 0.0376648 0)
(-0.0507167 0.0404506 0)
(-0.0669147 0.0401488 0)
(-0.0822991 0.0369757 0)
(-0.0959307 0.0310157 0)
(-0.106875 0.0223463 0)
(-0.114218 0.0112053 0)
(-0.117125 -0.00185057 0)
(-0.114945 -0.0158353 0)
(-0.107354 -0.0293059 0)
(-0.0945244 -0.0404537 0)
(-0.0773057 -0.047359 0)
(-0.0573403 -0.0484322 0)
(-0.0370152 -0.0429984 0)
(-0.0191436 -0.0318564 0)
(-0.00639416 -0.0175323 0)
(-0.000298807 -0.00415992 0)
(-0.000993097 0.012553 0)
(-0.00971255 0.0322455 0)
(-0.0237007 0.0460343 0)
(-0.0408835 0.0543332 0)
(-0.0594421 0.0578616 0)
(-0.0781574 0.0572134 0)
(-0.0960259 0.0527093 0)
(-0.112095 0.0444596 0)
(-0.125395 0.0325414 0)
(-0.134933 0.0172176 0)
(-0.13972 -0.000857254 0)
(-0.138865 -0.0204766 0)
(-0.13172 -0.0398029 0)
(-0.118107 -0.0564181 0)
(-0.0985951 -0.0675816 0)
(-0.07478 -0.0707758 0)
(-0.0494119 -0.0645493 0)
(-0.026174 -0.0494648 0)
(-0.00899218 -0.0286741 0)
(-0.000469998 -0.00775445 0)
(-0.00113593 0.0179386 0)
(-0.0110355 0.044728 0)
(-0.0267799 0.0627555 0)
(-0.0460075 0.0732986 0)
(-0.0667085 0.0776295 0)
(-0.0876236 0.0766628 0)
(-0.107773 0.0708601 0)
(-0.126245 0.0603534 0)
(-0.142085 0.0451805 0)
(-0.154253 0.0255565 0)
(-0.161618 0.00213455 0)
(-0.163011 -0.0237686 0)
(-0.157374 -0.0500067 0)
(-0.144017 -0.0735593 0)
(-0.123002 -0.0907221 0)
(-0.0956242 -0.0976966 0)
(-0.0648228 -0.0917093 0)
(-0.0352256 -0.0725351 0)
(-0.0124504 -0.0437508 0)
(-0.000718341 -0.0127717 0)
(-0.00123349 0.0239333 0)
(-0.0120038 0.0585334 0)
(-0.0290501 0.0811617 0)
(-0.049805 0.0941155 0)
(-0.0721232 0.0993449 0)
(-0.0947495 0.0981703 0)
(-0.116777 0.0912351 0)
(-0.137388 0.0786919 0)
(-0.155709 0.0604959 0)
(-0.170716 0.0367284 0)
(-0.181184 0.00791332 0)
(-0.185697 -0.0246785 0)
(-0.182757 -0.0587483 0)
(-0.17104 -0.09077 0)
(-0.149859 -0.116016 0)
(-0.11984 -0.129065 0)
(-0.0837217 -0.125122 0)
(-0.0469244 -0.102268 0)
(-0.0171713 -0.0639355 0)
(-0.00110434 -0.0197339 0)
(-0.00128149 0.0303396 0)
(-0.0125748 0.0732346 0)
(-0.030389 0.100713 0)
(-0.0520242 0.116191 0)
(-0.0752482 0.122407 0)
(-0.0988481 0.121171 0)
(-0.122035 0.113357 0)
(-0.144146 0.0991501 0)
(-0.164464 0.0783888 0)
(-0.182078 0.0509393 0)
(-0.195778 0.0170614 0)
(-0.204008 -0.0222095 0)
(-0.204898 -0.0646521 0)
(-0.196468 -0.10646 0)
(-0.177076 -0.14199 0)
(-0.146247 -0.163997 0)
(-0.105887 -0.164911 0)
(-0.0616651 -0.139796 0)
(-0.0235774 -0.0906798 0)
(-0.00170852 -0.0293855 0)
(-0.00128447 0.0369457 0)
(-0.0127521 0.0883556 0)
(-0.0307504 0.120769 0)
(-0.0524982 0.138769 0)
(-0.075711 0.145976 0)
(-0.0992508 0.14478 0)
(-0.12249 0.136352 0)
(-0.144981 0.120935 0)
(-0.166248 0.0982454 0)
(-0.185615 0.0678792 0)
(-0.202051 0.0297166 0)
(-0.214047 -0.0156367 0)
(-0.219556 -0.0663252 0)
(-0.216059 -0.118627 0)
(-0.2009 -0.166338 0)
(-0.17211 -0.200486 0)
(-0.129962 -0.210155 0)
(-0.079337 -0.185733 0)
(-0.0320621 -0.12555 0)
(-0.00264256 -0.0427114 0)
(-0.00126564 0.043564 0)
(-0.0126363 0.103425 0)
(-0.030251 0.140628 0)
(-0.0512634 0.160935 0)
(-0.0733582 0.168955 0)
(-0.0955079 0.167759 0)
(-0.117292 0.158888 0)
(-0.138538 0.142699 0)
(-0.159099 0.118812 0)
(-0.17866 0.086545 0)
(-0.196551 0.0453332 0)
(-0.211568 -0.00480694 0)
(-0.221785 -0.0626875 0)
(-0.224445 -0.125145 0)
(-0.216045 -0.186031 0)
(-0.192952 -0.235201 0)
(-0.153027 -0.258324 0)
(-0.0989203 -0.239511 0)
(-0.0428644 -0.169887 0)
(-0.00405999 -0.0609384 0)
(-0.00128119 0.0501036 0)
(-0.0124923 0.118072 0)
(-0.0292742 0.159593 0)
(-0.0486907 0.181662 0)
(-0.0684164 0.190021 0)
(-0.0875974 0.188535 0)
(-0.106085 0.179201 0)
(-0.124044 0.162557 0)
(-0.141726 0.138187 0)
(-0.15928 0.105174 0)
(-0.176568 0.0625159 0)
(-0.192938 0.00956178 0)
(-0.20695 -0.0534035 0)
(-0.216063 -0.124271 0)
(-0.216388 -0.197772 0)
(-0.202836 -0.263649 0)
(-0.170419 -0.304927 0)
(-0.118029 -0.298567 0)
(-0.0558122 -0.224182 0)
(-0.00616125 -0.0854849 0)
(-0.00144319 0.0566921 0)
(-0.0128392 0.132172 0)
(-0.0285808 0.177074 0)
(-0.0455932 0.19987 0)
(-0.0616005 0.207677 0)
(-0.0760544 0.205283 0)
(-0.0891881 0.195207 0)
(-0.101573 0.178229 0)
(-0.113907 0.153965 0)
(-0.126857 0.121349 0)
(-0.140905 0.0790244 0)
(-0.156132 0.0257125 0)
(-0.171911 -0.0392961 0)
(-0.186442 -0.115321 0)
(-0.196164 -0.198816 0)
(-0.19524 -0.280874 0)
(-0.176035 -0.343666 0)
(-0.132605 -0.357671 0)
(-0.0699027 -0.287131 0)
(-0.00918211 -0.117777 0)
(-0.00196103 0.0638718 0)
(-0.0145731 0.146037 0)
(-0.0294026 0.192678 0)
(-0.0432452 0.214468 0)
(-0.0540582 0.220306 0)
(-0.0618683 0.216021 0)
(-0.0674739 0.204666 0)
(-0.0719391 0.187265 0)
(-0.0764264 0.163511 0)
(-0.0821083 0.132283 0)
(-0.0900738 0.0920036 0)
(-0.101181 0.0409231 0)
(-0.115789 -0.0225504 0)
(-0.133285 -0.0992524 0)
(-0.151252 -0.187964 0)
(-0.164284 -0.282666 0)
(-0.163152 -0.367373 0)
(-0.136996 -0.408865 0)
(-0.0827628 -0.354496 0)
(-0.0133124 -0.158779 0)
(-0.0032001 0.0728904 0)
(-0.0191139 0.160606 0)
(-0.0334256 0.206207 0)
(-0.0431182 0.224272 0)
(-0.0468819 0.226117 0)
(-0.045819 0.21864 0)
(-0.0415671 0.205296 0)
(-0.0357796 0.187256 0)
(-0.0300734 0.164265 0)
(-0.0260485 0.135203 0)
(-0.0252923 0.0984139 0)
(-0.0293307 0.0519101 0)
(-0.0394812 -0.00647514 0)
(-0.0564977 -0.0788108 0)
(-0.0797724 -0.166279 0)
(-0.105705 -0.266876 0)
(-0.125383 -0.36954 0)
(-0.124354 -0.442325 0)
(-0.0900823 -0.418318 0)
(-0.0183771 -0.208171 0)
(-0.00566683 0.0861882 0)
(-0.0283853 0.177534 0)
(-0.0422264 0.217288 0)
(-0.0456438 0.22754 0)
(-0.0393366 0.222774 0)
(-0.0263396 0.210661 0)
(-0.00945819 0.194671 0)
(0.00900513 0.175861 0)
(0.0270485 0.153906 0)
(0.0427847 0.12768 0)
(0.0543113 0.0955584 0)
(0.059648 0.0555512 0)
(0.0567427 0.00532617 0)
(0.043619 -0.057828 0)
(0.0188834 -0.136899 0)
(-0.016747 -0.234061 0)
(-0.05708 -0.345748 0)
(-0.0869581 -0.447856 0)
(-0.0851288 -0.467217 0)
(-0.0231683 -0.263884 0)
(-0.00990936 0.108944 0)
(-0.0438655 0.198869 0)
(-0.0543869 0.223889 0)
(-0.0455232 0.22049 0)
(-0.0232092 0.206283 0)
(0.00645586 0.188514 0)
(0.0394276 0.169817 0)
(0.0729548 0.150666 0)
(0.10491 0.130438 0)
(0.13339 0.107946 0)
(0.156453 0.081669 0)
(0.171954 0.0498114 0)
(0.177442 0.0102541 0)
(0.170122 -0.0396709 0)
(0.146983 -0.103643 0)
(0.105642 -0.186858 0)
(0.0474819 -0.294091 0)
(-0.0159764 -0.41588 0)
(-0.0585536 -0.486885 0)
(-0.0248659 -0.322185 0)
(-0.0176975 0.152165 0)
(-0.0615363 0.223772 0)
(-0.0532623 0.21706 0)
(-0.0164515 0.193606 0)
(0.0320607 0.169237 0)
(0.0839814 0.147083 0)
(0.135478 0.127525 0)
(0.184379 0.109922 0)
(0.229164 0.0931538 0)
(0.268457 0.0759602 0)
(0.300711 0.0570163 0)
(0.324012 0.034887 0)
(0.335916 0.0079663 0)
(0.333343 -0.0257983 0)
(0.3124 -0.0695676 0)
(0.268395 -0.129227 0)
(0.19704 -0.215595 0)
(0.100714 -0.337703 0)
(0.00297937 -0.456207 0)
(-0.0163211 -0.368431 0)
(-0.0240415 0.208682 0)
(-0.0376044 0.230789 0)
(0.0374365 0.176595 0)
(0.124738 0.136455 0)
(0.204722 0.108301 0)
(0.275956 0.0872775 0)
(0.339234 0.0711952 0)
(0.394988 0.0584318 0)
(0.443388 0.0475583 0)
(0.484219 0.0374137 0)
(0.516922 0.0269845 0)
(0.540243 0.0153547 0)
(0.552196 0.00159423 0)
(0.550027 -0.0154007 0)
(0.529806 -0.0374919 0)
(0.485932 -0.0685914 0)
(0.409925 -0.118827 0)
(0.289997 -0.209293 0)
(0.132624 -0.338302 0)
(0.0383334 -0.340174 0)
(0.241991 0.10926 0)
(0.313837 0.0973003 0)
(0.444871 0.0570484 0)
(0.550088 0.0350906 0)
(0.624164 0.0236467 0)
(0.679169 0.016577 0)
(0.722461 0.0118488 0)
(0.75727 0.00860081 0)
(0.78523 0.00622911 0)
(0.807183 0.00428764 0)
(0.823313 0.00245437 0)
(0.833219 0.0005071 0)
(0.835984 -0.00173843 0)
(0.830119 -0.0044327 0)
(0.813229 -0.00790415 0)
(0.781324 -0.0128409 0)
(0.726002 -0.0212967 0)
(0.630112 -0.0382243 0)
(0.459331 -0.085807 0)
(0.304867 -0.125748 0)
)
;

boundaryField
{
    movingWall
    {
        type            fixedValue;
        value           uniform (1 0 0);
    }
    fixedWalls
    {
        type            fixedValue;
        value           uniform (0 0 0);
    }
    frontAndBack
    {
        type            empty;
    }
}


// ************************************************************************* //
