/*--------------------------------*- C++ -*----------------------------------*\
  =========                 |
  \\      /  F ield         | OpenFOAM: The Open Source CFD Toolbox
   \\    /   O peration     | Website:  https://openfoam.org
    \\  /    A nd           | Version:  13
     \\/     M anipulation  |
\*---------------------------------------------------------------------------*/
FoamFile
{
    format      ascii;
    class       volScalarField;
    location    "47";
    object      p;
}
// * * * * * * * * * * * * * * * * * * * * * * * * * * * * * * * * * * * * * //

dimensions      [0 2 -2 0 0 0 0];

internalField   nonuniform List<scalar> 
400
(
1.41663e-08
-0.000572526
-0.00121614
-0.00171901
-0.00195933
-0.00188481
-0.00147063
-0.000705689
0.000401137
0.0018058
0.00341454
0.00507486
0.00659089
0.00775095
0.00837966
0.00839549
0.00785521
0.00696877
0.00604789
0.00549421
0.000569847
-2.04175e-05
-0.000569809
-0.000957194
-0.00113217
-0.00106212
-0.000726116
-0.000109393
0.000788611
0.00193929
0.00326963
0.00465998
0.00594056
0.00692967
0.00747411
0.00750166
0.00705909
0.00631871
0.00554313
0.00497251
0.00124559
0.00049287
-8.68272e-05
-0.000441497
-0.000606304
-0.000576443
-0.00033742
0.000132451
0.00084955
0.00180674
0.00295471
0.00419166
0.00536431
0.0062937
0.00681914
0.00685279
0.00642064
0.00566807
0.00480881
0.00403706
0.00174048
0.000763573
7.35544e-05
-0.000322053
-0.000537253
-0.00059288
-0.000478374
-0.000160292
0.000399899
0.00122196
0.00228157
0.00349275
0.0047016
0.00570963
0.0063193
0.00639806
0.00593341
0.00505046
0.0039483
0.00284432
0.00179538
0.000595614
-0.00022781
-0.000704928
-0.00101825
-0.00120736
-0.00125949
-0.00112312
-0.000730609
-2.79291e-05
0.000991661
0.00226351
0.00362999
0.00486117
0.0056986
0.00593225
0.00548032
0.0044354
0.00299984
0.00146199
0.00119463
-0.000203112
-0.00116339
-0.0017528
-0.0022115
-0.00259077
-0.00286937
-0.0029713
-0.00279201
-0.002233
-0.00124413
0.000150459
0.00179279
0.00341978
0.00469016
0.00527466
0.00497183
0.0038056
0.00197893
-0.000104136
-0.000241691
-0.00180016
-0.00289233
-0.0036223
-0.00427778
-0.00491671
-0.00550515
-0.00593761
-0.00606463
-0.00572851
-0.00480698
-0.00328523
-0.00127039
0.000946637
0.00292623
0.0041698
0.00427919
0.00313547
0.000902533
-0.00185634
-0.00265201
-0.0043264
-0.00554131
-0.00643935
-0.00734718
-0.0083278
-0.00933395
-0.0102288
-0.0108113
-0.0108505
-0.0101336
-0.00853905
-0.00610712
-0.00311232
-8.64906e-05
0.00225497
0.00321258
0.00239521
-0.000177446
-0.00375304
-0.00612143
-0.00786176
-0.00918478
-0.0102718
-0.0114831
-0.0128894
-0.0144345
-0.0159529
-0.0171897
-0.0178277
-0.0175354
-0.0160428
-0.0132532
-0.00935757
-0.0049361
-0.000941486
0.00150801
0.0015545
-0.00113723
-0.00564688
-0.0106716
-0.0124237
-0.0138275
-0.0151021
-0.0166422
-0.0185359
-0.0207272
-0.0230305
-0.0251405
-0.0266492
-0.0270842
-0.0259776
-0.0230343
-0.0182542
-0.0121678
-0.00592222
-0.00114237
0.000602935
-0.00173148
-0.00719524
-0.0162606
-0.0179654
-0.0193958
-0.0208062
-0.0226416
-0.0250234
-0.0279114
-0.0311116
-0.0342776
-0.0369139
-0.0383954
-0.0380068
-0.0352842
-0.0298336
-0.0220052
-0.0130065
-0.00495991
-0.000375666
-0.00151613
-0.00772078
-0.022803
-0.0243901
-0.0257427
-0.0271485
-0.0291436
-0.0319107
-0.0354425
-0.0395495
-0.043855
-0.0477847
-0.05058
-0.0513772
-0.0491635
-0.0433941
-0.033989
-0.0219778
-0.00980603
-0.00102487
0.000279936
-0.00600011
-0.0302226
-0.0315863
-0.0326697
-0.0337921
-0.0356682
-0.03858
-0.042569
-0.0474551
-0.0528344
-0.0580627
-0.0622511
-0.0643107
-0.0630224
-0.0573321
-0.0466929
-0.031705
-0.0148012
-0.000417184
0.00496549
2.26934e-05
-0.0385601
-0.0394895
-0.0399613
-0.040327
-0.041635
-0.0443096
-0.0484456
-0.0538594
-0.060106
-0.0664655
-0.0719295
-0.0752216
-0.0748704
-0.0694215
-0.0578071
-0.0400022
-0.0180234
0.00327944
0.0146985
0.0135556
-0.0481748
-0.048157
-0.0474035
-0.0462842
-0.0464121
-0.0483713
-0.0522815
-0.0579132
-0.0647395
-0.0719354
-0.0783607
-0.0825613
-0.0828323
-0.0773739
-0.0646453
-0.0439371
-0.0165435
0.0130188
0.032931
0.0392806
-0.060235
-0.0579578
-0.0548673
-0.0512135
-0.0494272
-0.0501785
-0.0535204
-0.0590937
-0.0662201
-0.0739188
-0.0808795
-0.0854535
-0.085707
-0.0795199
-0.064942
-0.0406113
-0.00697894
0.0328167
0.0647937
0.0836767
-0.0774815
-0.0694733
-0.0620875
-0.0545495
-0.0501391
-0.0493252
-0.0519045
-0.0572611
-0.0644863
-0.0723851
-0.0794401
-0.0837785
-0.0832185
-0.0752831
-0.0576215
-0.0282114
0.0133524
0.0666609
0.115752
0.154807
-0.108926
-0.0850402
-0.0697735
-0.0563917
-0.0485411
-0.0458812
-0.0476243
-0.0527151
-0.0599173
-0.0677771
-0.0745525
-0.0781402
-0.0761045
-0.0655427
-0.0436433
-0.00744516
0.044743
0.114933
0.188078
0.263281
-0.168693
-0.100746
-0.0730932
-0.0522882
-0.0413103
-0.0376998
-0.0394421
-0.0448655
-0.0524159
-0.0604471
-0.067074
-0.070048
-0.0666876
-0.0537885
-0.0278899
0.0154098
0.0800715
0.17276
0.285854
0.445985
-0.402754
-0.139031
-0.0734592
-0.0447302
-0.0305719
-0.0266176
-0.0290857
-0.0353736
-0.0436542
-0.0522075
-0.0591241
-0.0621457
-0.0586176
-0.0452141
-0.017451
0.0310786
0.108495
0.236657
0.427487
0.79368
)
;

boundaryField
{
    movingWall
    {
        type            zeroGradient;
    }
    fixedWalls
    {
        type            zeroGradient;
    }
    frontAndBack
    {
        type            empty;
    }
}


// ************************************************************************* //
