/*--------------------------------*- C++ -*----------------------------------*\
  =========                 |
  \\      /  F ield         | OpenFOAM: The Open Source CFD Toolbox
   \\    /   O peration     | Website:  https://openfoam.org
    \\  /    A nd           | Version:  13
     \\/     M anipulation  |
\*---------------------------------------------------------------------------*/
FoamFile
{
    format      ascii;
    class       volScalarField;
    location    "35";
    object      p;
}
// * * * * * * * * * * * * * * * * * * * * * * * * * * * * * * * * * * * * * //

dimensions      [0 2 -2 0 0 0 0];

internalField   nonuniform List<scalar> 
400
(
1.62912e-07
-0.000572359
-0.00121598
-0.00171885
-0.00195914
-0.00188461
-0.00147044
-0.000705516
0.000401322
0.00180601
0.00341475
0.00507506
0.00659109
0.00775114
0.00837984
0.00839568
0.00785539
0.00696895
0.00604806
0.00549439
0.000570013
-2.02351e-05
-0.00056964
-0.000957046
-0.00113201
-0.00106192
-0.000725912
-0.000109202
0.000788794
0.00193948
0.00326983
0.00466018
0.00594075
0.00692986
0.00747429
0.00750184
0.00705926
0.00631889
0.00554331
0.00497269
0.00124574
0.00049305
-8.66348e-05
-0.000441329
-0.000606152
-0.000576275
-0.00033723
0.000132644
0.000849733
0.00180692
0.00295489
0.00419184
0.00536449
0.00629387
0.00681931
0.00685296
0.00642081
0.00566824
0.00480899
0.00403724
0.00174062
0.000763726
7.37411e-05
-0.000321865
-0.000537088
-0.000592723
-0.000478205
-0.000160113
0.000400077
0.00122213
0.00228173
0.00349292
0.00470177
0.00570979
0.00631946
0.00639822
0.00593357
0.00505063
0.00394847
0.00284449
0.00179554
0.00059575
-0.000227651
-0.000704745
-0.00101807
-0.0012072
-0.00125933
-0.00112296
-0.000730444
-2.7769e-05
0.000991815
0.00226366
0.00363014
0.00486132
0.00569875
0.0059324
0.00548048
0.00443556
0.00300001
0.00146216
0.00119482
-0.000202965
-0.00116325
-0.00175264
-0.00221133
-0.0025906
-0.00286921
-0.00297115
-0.00279186
-0.00223285
-0.00124398
0.000150604
0.00179294
0.00341992
0.00469031
0.00527482
0.00497199
0.00380577
0.0019791
-0.000103965
-0.000241507
-0.00179999
-0.00289219
-0.00362215
-0.00427762
-0.00491655
-0.00550499
-0.00593746
-0.00606448
-0.00572836
-0.00480683
-0.00328508
-0.00127025
0.000946785
0.00292638
0.00416996
0.00427936
0.00313564
0.000902706
-0.00185616
-0.00265185
-0.00432623
-0.00554115
-0.0064392
-0.00734702
-0.00832763
-0.00933378
-0.0102286
-0.0108112
-0.0108503
-0.0101334
-0.0085389
-0.00610696
-0.00311216
-8.63291e-05
0.00225514
0.00321276
0.00239538
-0.000177267
-0.00375286
-0.00612128
-0.00786159
-0.00918461
-0.0102717
-0.0114829
-0.0128892
-0.0144343
-0.0159528
-0.0171895
-0.0178275
-0.0175352
-0.0160427
-0.013253
-0.00935741
-0.00493593
-0.000941311
0.00150818
0.00155468
-0.00113705
-0.0056467
-0.0106714
-0.0124236
-0.0138274
-0.0151019
-0.0166421
-0.0185357
-0.020727
-0.0230304
-0.0251403
-0.026649
-0.027084
-0.0259775
-0.0230341
-0.018254
-0.0121677
-0.00592204
-0.00114219
0.000603121
-0.00173129
-0.00719505
-0.0162604
-0.0179653
-0.0193956
-0.020806
-0.0226414
-0.0250233
-0.0279112
-0.0311114
-0.0342774
-0.0369138
-0.0383952
-0.0380066
-0.035284
-0.0298334
-0.022005
-0.0130063
-0.00495972
-0.000375477
-0.00151594
-0.00772059
-0.0228028
-0.0243899
-0.0257426
-0.0271483
-0.0291434
-0.0319105
-0.0354423
-0.0395493
-0.0438548
-0.0477845
-0.0505798
-0.051377
-0.0491633
-0.0433939
-0.0339888
-0.0219776
-0.00980584
-0.00102468
0.000280127
-0.00599992
-0.0302224
-0.0315861
-0.0326695
-0.0337919
-0.035668
-0.0385798
-0.0425688
-0.0474549
-0.0528342
-0.0580625
-0.0622509
-0.0643105
-0.0630222
-0.0573319
-0.0466927
-0.0317049
-0.014801
-0.000416996
0.00496568
2.28821e-05
-0.0385599
-0.0394893
-0.0399611
-0.0403268
-0.0416348
-0.0443094
-0.0484454
-0.0538592
-0.0601058
-0.0664653
-0.0719293
-0.0752214
-0.0748703
-0.0694213
-0.0578069
-0.040002
-0.0180232
0.00327962
0.0146987
0.0135558
-0.0481747
-0.0481568
-0.0474034
-0.046284
-0.0464119
-0.0483711
-0.0522814
-0.057913
-0.0647393
-0.0719353
-0.0783605
-0.0825612
-0.0828321
-0.0773737
-0.0646452
-0.0439369
-0.0165434
0.0130189
0.0329312
0.0392808
-0.0602349
-0.0579576
-0.0548671
-0.0512133
-0.0494271
-0.0501783
-0.0535202
-0.0590936
-0.0662199
-0.0739186
-0.0808794
-0.0854533
-0.0857069
-0.0795198
-0.0649418
-0.0406112
-0.00697878
0.0328169
0.0647938
0.0836769
-0.0774813
-0.0694731
-0.0620873
-0.0545493
-0.0501389
-0.049325
-0.0519044
-0.0572609
-0.0644861
-0.0723849
-0.0794399
-0.0837783
-0.0832184
-0.0752829
-0.0576213
-0.0282112
0.0133525
0.0666611
0.115752
0.154807
-0.108926
-0.08504
-0.0697733
-0.0563915
-0.048541
-0.0458811
-0.0476242
-0.0527149
-0.0599171
-0.067777
-0.0745523
-0.07814
-0.0761043
-0.0655425
-0.0436432
-0.007445
0.0447432
0.114933
0.188078
0.263281
-0.168693
-0.100746
-0.0730931
-0.0522881
-0.0413101
-0.0376997
-0.0394419
-0.0448654
-0.0524157
-0.0604469
-0.0670739
-0.0700478
-0.0666874
-0.0537883
-0.0278898
0.01541
0.0800717
0.17276
0.285855
0.445986
-0.402754
-0.139031
-0.0734591
-0.0447301
-0.0305717
-0.0266175
-0.0290855
-0.0353734
-0.043654
-0.0522073
-0.0591239
-0.0621455
-0.0586174
-0.045214
-0.0174508
0.0310787
0.108496
0.236657
0.427487
0.79368
)
;

boundaryField
{
    movingWall
    {
        type            zeroGradient;
    }
    fixedWalls
    {
        type            zeroGradient;
    }
    frontAndBack
    {
        type            empty;
    }
}


// ************************************************************************* //
