/*--------------------------------*- C++ -*----------------------------------*\
  =========                 |
  \\      /  F ield         | OpenFOAM: The Open Source CFD Toolbox
   \\    /   O peration     | Website:  https://openfoam.org
    \\  /    A nd           | Version:  13
     \\/     M anipulation  |
\*---------------------------------------------------------------------------*/
FoamFile
{
    format      ascii;
    class       surfaceScalarField;
    location    "35";
    object      phi;
}
// * * * * * * * * * * * * * * * * * * * * * * * * * * * * * * * * * * * * * //

dimensions      [0 3 -1 0 0 0 0];

internalField   nonuniform List<scalar> 
760
(
4.48089e-06
-4.48102e-06
-3.88802e-05
4.33605e-05
-0.000131241
9.23618e-05
-0.000256732
0.000125491
-0.000399478
0.000142748
-0.000546139
0.000146661
-0.000684884
0.000138747
-0.000804031
0.000119147
-0.00089148
8.74477e-05
-0.000935406
4.39252e-05
-0.00092616
-9.2459e-06
-0.000859024
-6.71357e-05
-0.000737009
-0.000122014
-0.000572739
-0.000164268
-0.000388286
-0.000184454
-0.000212132
-0.000176155
-7.32811e-05
-0.000138851
6.5792e-06
-7.98594e-05
2.24682e-05
-1.58887e-05
2.2469e-05
-4.71573e-05
4.2677e-05
-0.000208939
0.000205142
-0.000472011
0.000355436
-0.00080387
0.00045735
-0.00117033
0.000509212
-0.00153995
0.000516282
-0.00188334
0.000482135
-0.00217172
0.000407527
-0.00237683
0.000292553
-0.00247293
0.000140024
-0.00244083
-4.13375e-05
-0.00227302
-0.000234948
-0.00197861
-0.000416422
-0.00158637
-0.000556505
-0.00114396
-0.000626863
-0.000711913
-0.000608202
-0.000352023
-0.000498742
-0.000111569
-0.000320314
-6.05375e-06
-0.000121401
1.6416e-05
-0.000111473
0.00015415
-0.000404117
0.000497786
-0.000831951
0.000783271
-0.00134606
0.000971457
-0.00189963
0.00106279
-0.00244933
0.00106598
-0.00295399
0.000986793
-0.00337346
0.000827
-0.00366914
0.000588234
-0.00380683
0.000277712
-0.00376163
-8.65373e-05
-0.00352395
-0.000472621
-0.00310537
-0.000834993
-0.00254257
-0.00111931
-0.00189725
-0.00127219
-0.00124989
-0.00125556
-0.000686005
-0.00106263
-0.000275977
-0.000730339
-5.34142e-05
-0.000343961
-3.6999e-05
-0.000172667
0.000326817
-0.000591629
0.000916747
-0.00117501
0.00136665
-0.00185507
0.00165152
-0.00257394
0.00178166
-0.00328011
0.00177215
-0.00392518
0.00163186
-0.00446206
0.00136388
-0.00484549
0.000971665
-0.00503494
0.000467171
-0.00499959
-0.000121881
-0.00472463
-0.000747577
-0.00421811
-0.00134152
-0.00351685
-0.00182056
-0.00268924
-0.00209981
-0.0018314
-0.00211339
-0.00105368
-0.00184036
-0.0004567
-0.00132731
-0.000103431
-0.000697231
-0.000140431
-0.00022716
0.000553975
-0.000760359
0.00144994
-0.0014847
0.00209099
-0.00231417
0.00248099
-0.00318132
0.00264881
-0.00402923
0.00262006
-0.00480573
0.00240836
-0.00546015
0.0020183
-0.00594293
0.00145445
-0.00620776
0.000732006
-0.00621594
-0.000113701
-0.00594265
-0.00102086
-0.00538526
-0.00189891
-0.00457245
-0.00263337
-0.0035722
-0.00310007
-0.00249356
-0.00319203
-0.00147609
-0.00285783
-0.000662216
-0.00214119
-0.000157943
-0.00120151
-0.000298374
-0.000273166
0.000827141
-0.000903832
0.00208061
-0.00174946
0.00293662
-0.00270853
0.00344006
-0.00370621
0.00364648
-0.0046828
0.00359666
-0.00558533
0.00331089
-0.00636236
0.00279534
-0.00696201
0.0020541
-0.00733249
0.00110249
-0.00742527
-2.09146e-05
-0.00720082
-0.00124532
-0.0066384
-0.00246134
-0.00574908
-0.00352268
-0.00459097
-0.00425818
-0.00328038
-0.00450262
-0.00198886
-0.00414935
-0.000914173
-0.00321588
-0.000224479
-0.0018912
-0.000522852
-0.000308843
0.00113598
-0.00101596
0.00278772
-0.00195786
0.00387852
-0.00302135
0.00450354
-0.00412686
0.004752
-0.00521453
0.00468433
-0.00623337
0.00432973
-0.00713405
0.00369601
-0.00786469
0.00278475
-0.00836942
0.00160721
-0.00858931
0.000198968
-0.0084674
-0.00136722
-0.00795838
-0.00297036
-0.00704554
-0.00443552
-0.00576392
-0.00553981
-0.00422479
-0.00604175
-0.00262778
-0.00574636
-0.00123808
-0.00460558
-0.000312479
-0.00281679
-0.000835331
-0.00033232
0.0014683
-0.00109074
0.00354614
-0.00209817
0.00488595
-0.00323373
0.0056391
-0.0044158
0.00593406
-0.00558675
0.00585528
-0.00670036
0.00544333
-0.00771248
0.00470813
-0.00857466
0.00364693
-0.00923009
0.00226265
-0.00961211
0.000580989
-0.00964663
-0.0013327
-0.0092607
-0.00335628
-0.00840066
-0.00529556
-0.00706221
-0.00687826
-0.00533056
-0.00777339
-0.00341708
-0.00765984
-0.00165832
-0.00636434
-0.000432294
-0.00404282
-0.00126763
-0.000342355
0.00181066
-0.00112377
0.00432755
-0.00216057
0.00592275
-0.00332773
0.00680626
-0.00454382
0.00715015
-0.00575561
0.00706706
-0.00692426
0.00661198
-0.0080143
0.00579817
-0.00898516
0.00461779
-0.00978461
0.00306209
-0.0103443
0.00114064
-0.0105783
-0.00109868
-0.0103883
-0.0035463
-0.00967871
-0.00600511
-0.00838987
-0.0081671
-0.00655226
-0.00961101
-0.00435564
-0.00985647
-0.00219308
-0.0085269
-0.000594806
-0.0056411
-0.00186243
-0.000339432
0.00215009
-0.00111484
0.00510296
-0.00214121
0.00694912
-0.00329184
0.00795688
-0.00448729
0.0083456
-0.00568063
0.0082604
-0.00684295
0.0077743
-0.00795104
0.00690627
-0.00897742
0.00564416
-0.00988169
0.00396636
-0.010603
0.00186196
-0.0110542
-0.000647516
-0.0111208
-0.00347971
-0.0106684
-0.00645749
-0.00957174
-0.00926375
-0.00777613
-0.0114066
-0.00539966
-0.0122329
-0.00284648
-0.0110801
-0.000810832
-0.00767675
-0.00267326
-0.000327244
0.00247733
-0.00107149
0.00584721
-0.00204761
0.00792523
-0.0031282
0.00903747
-0.00423756
0.00945496
-0.0053373
0.00936015
-0.00641101
0.008848
-0.0074512
0.00794647
-0.00844853
0.0066415
-0.00938202
0.00489985
-0.0102094
0.00268935
-0.0108556
-1.29589e-06
-0.0112074
-0.00312798
-0.0111046
-0.00656031
-0.0103592
-0.0100091
-0.00880964
-0.0129562
-0.00644419
-0.0145984
-0.00359618
-0.0139281
-0.00108944
-0.0101835
-0.0037627
-0.000314622
0.00279195
-0.00101316
0.00654574
-0.00190435
0.00881643
-0.00285965
0.00999277
-0.00381004
0.0104054
-0.00472922
0.0102793
-0.00561645
0.00973524
-0.00648307
0.00881308
-0.00734174
0.00750016
-0.00819684
0.00575495
-0.00903376
0.00352628
-0.00980706
0.000772001
-0.0104205
-0.00251455
-0.0107157
-0.00626515
-0.0104621
-0.0102626
-0.00939043
-0.0140279
-0.00731098
-0.0166778
-0.00437687
-0.0168622
-0.00143394
-0.0131264
-0.00519664
-0.000318268
0.00311022
-0.000975926
0.0072034
-0.00175811
0.00959861
-0.00253438
0.010769
-0.00324883
0.0111198
-0.00389396
0.0109245
-0.00448936
0.0103306
-0.00506783
0.00939155
-0.00566594
0.00809828
-0.00631605
0.00640506
-0.00703697
0.00424719
-0.00782099
0.00155602
-0.00861326
-0.00172228
-0.00928522
-0.00559318
-0.00960338
-0.00994442
-0.00922049
-0.0144108
-0.00775304
-0.0181453
-0.00506413
-0.0195511
-0.00183381
-0.0163567
-0.00703044
-0.000367227
0.00347745
-0.00101787
0.00785405
-0.00167983
0.0102606
-0.00222376
0.011313
-0.002621
0.011517
-0.00289478
0.0111982
-0.00309178
0.0105276
-0.00326871
0.00956848
-0.00348568
0.00831525
-0.00380141
0.0067208
-0.00426737
0.00471316
-0.00491775
0.0022064
-0.00575122
-0.000888813
-0.00669908
-0.00464532
-0.00757474
-0.00906876
-0.00801541
-0.0139702
-0.00747829
-0.0186824
-0.00546521
-0.0215642
-0.00225047
-0.0195715
-0.00928091
-0.000509643
0.00398709
-0.00122268
0.00856709
-0.00175736
0.0107952
-0.00200286
0.0115585
-0.00198666
0.0115008
-0.00178199
0.0109936
-0.00147154
0.0102172
-0.00113788
0.00923482
-0.000862232
0.0080396
-0.000724734
0.0065833
-0.000803516
0.00479193
-0.00117037
0.00257325
-0.00187924
-0.000179941
-0.00293921
-0.00358535
-0.00425768
-0.00775028
-0.00553999
-0.0126879
-0.00617704
-0.0180454
-0.00531564
-0.0224256
-0.00259466
-0.0222925
-0.0118756
-0.000814941
0.00480203
-0.00168624
0.00943839
-0.00204998
0.011159
-0.00187474
0.0113832
-0.00130125
0.0109274
-0.000479805
0.0101721
0.000462051
0.00927533
0.0014161
0.00828077
0.00228491
0.0071708
0.00297447
0.00589373
0.00338919
0.00437722
0.00342984
0.00253261
0.00299641
0.000253497
0.00200296
-0.00259191
0.000422395
-0.00616972
-0.00159938
-0.0106661
-0.00352883
-0.0161159
-0.00427061
-0.0216838
-0.00269256
-0.0238705
-0.0145681
-0.00135039
0.00615243
-0.00242365
0.0105116
-0.0023943
0.0111296
-0.00150874
0.0104977
-0.000122484
0.0095411
0.00151368
0.00853595
0.00323074
0.00755827
0.00490535
0.00660616
0.00643621
0.00563994
0.00772795
0.004602
0.00868018
0.00342499
0.00918023
0.00203256
0.00909864
0.000335088
0.00829153
-0.00178479
0.00661967
-0.00449786
0.00403415
-0.00808057
0.000831258
-0.012913
-0.00189221
-0.0189604
-0.00225885
-0.0235039
-0.016827
-0.00213554
0.00828796
-0.00292346
0.0112996
-0.00169118
0.00989734
0.000527435
0.00827905
0.00310454
0.00696399
0.00574993
0.00589056
0.00831075
0.00499746
0.0106905
0.00422645
0.0128147
0.00351567
0.0146102
0.0028065
0.0159911
0.00204409
0.0168504
0.00117327
0.017051
0.000134525
0.0164209
-0.00115465
0.0147443
-0.00282135
0.0117869
-0.00512308
0.00745752
-0.00858366
0.0024437
-0.0139465
-0.000885582
-0.0201746
-0.0177126
-0.00248706
0.010775
-1.19005e-05
0.00882441
0.00417708
0.00570836
0.00832496
0.00413116
0.0121169
0.00317206
0.0155221
0.00248539
0.0185415
0.00197798
0.0211811
0.00158693
0.0234373
0.00125947
0.0252875
0.000956285
0.0266847
0.000646889
0.0275513
0.000306675
0.0277741
-8.83148e-05
0.0271934
-0.000573933
0.0255716
-0.0011996
0.0225473
-0.0020987
0.0176182
-0.00365457
0.0104006
-0.00672896
0.00247455
-0.0122486
-0.015238
0.010775
0.0195994
0.0253078
0.029439
0.032611
0.0350964
0.0370744
0.0386613
0.0399208
0.0408771
0.041524
0.0418306
0.0417423
0.0411684
0.0399688
0.0378701
0.0342155
0.0274866
0.015238
)
;

boundaryField
{
    movingWall
    {
        type            calculated;
        value           uniform 0;
    }
    fixedWalls
    {
        type            calculated;
        value           uniform 0;
    }
    frontAndBack
    {
        type            empty;
    }
}


// ************************************************************************* //
