/*--------------------------------*- C++ -*----------------------------------*\
  =========                 |
  \\      /  F ield         | OpenFOAM: The Open Source CFD Toolbox
   \\    /   O peration     | Website:  https://openfoam.org
    \\  /    A nd           | Version:  13
     \\/     M anipulation  |
\*---------------------------------------------------------------------------*/
FoamFile
{
    format      ascii;
    class       volVectorField;
    location    "35";
    object      U_0;
}
// * * * * * * * * * * * * * * * * * * * * * * * * * * * * * * * * * * * * * //

dimensions      [0 1 -1 0 0 0 0];

internalField   nonuniform List<vector> 
400
(
(0.000179919 -0.000183729 0)
(-0.000141467 3.22551e-05 0)
(-0.00153031 0.000268989 0)
(-0.00376897 0.0004193 0)
(-0.00651205 0.000498626 0)
(-0.0094599 0.00052855 0)
(-0.012364 0.000518869 0)
(-0.0149925 0.00046862 0)
(-0.0171069 0.000371201 0)
(-0.0184629 0.000221361 0)
(-0.0188367 2.23641e-05 0)
(-0.0180744 -0.000208523 0)
(-0.0161507 -0.000437639 0)
(-0.0132191 -0.000618828 0)
(-0.00963246 -0.000703833 0)
(-0.00591286 -0.000657848 0)
(-0.00266231 -0.000474472 0)
(-0.000419818 -0.000183805 0)
(0.000529595 0.000133724 0)
(0.00030642 0.000299504 0)
(-4.8972e-05 0.000140298 0)
(-0.0020663 0.0019226 0)
(-0.00639002 0.00373665 0)
(-0.0124955 0.00499055 0)
(-0.0196308 0.00565003 0)
(-0.0271294 0.00579101 0)
(-0.0343904 0.00546424 0)
(-0.0408363 0.00467654 0)
(-0.0458924 0.0034186 0)
(-0.0490048 0.0017097 0)
(-0.0497042 -0.000358602 0)
(-0.0477019 -0.00259412 0)
(-0.0429972 -0.00470276 0)
(-0.0359642 -0.00632463 0)
(-0.0273801 -0.00710935 0)
(-0.018362 -0.00682023 0)
(-0.0101911 -0.00544026 0)
(-0.00403177 -0.00324735 0)
(-0.000584973 -0.000867348 0)
(0.00021779 0.000578586 0)
(-0.00035237 0.00170948 0)
(-0.0044508 0.00642237 0)
(-0.0117776 0.0105986 0)
(-0.0214314 0.0134222 0)
(-0.0323255 0.0148448 0)
(-0.0435541 0.014993 0)
(-0.0542848 0.0139565 0)
(-0.0637079 0.0117582 0)
(-0.0710275 0.00841182 0)
(-0.0754973 0.00401089 0)
(-0.0765017 -0.0011873 0)
(-0.0736699 -0.00671162 0)
(-0.067001 -0.0118825 0)
(-0.0569686 -0.0158895 0)
(-0.0445674 -0.0179479 0)
(-0.0312582 -0.0175186 0)
(-0.0187712 -0.0145425 0)
(-0.00876496 -0.00961369 0)
(-0.00241813 -0.00405417 0)
(3.19661e-05 9.53207e-06 0)
(-0.000627206 0.00456253 0)
(-0.006752 0.0135719 0)
(-0.0169594 0.0207645 0)
(-0.0299034 0.0254379 0)
(-0.0441602 0.0276562 0)
(-0.0586445 0.0276368 0)
(-0.072379 0.0255193 0)
(-0.0844136 0.0213505 0)
(-0.0938161 0.0151821 0)
(-0.0997098 0.00720729 0)
(-0.101356 -0.00211534 0)
(-0.0982695 -0.0119883 0)
(-0.0903566 -0.0212803 0)
(-0.0780463 -0.0286373 0)
(-0.0623882 -0.0327146 0)
(-0.0450568 -0.0325269 0)
(-0.0281899 -0.0278526 0)
(-0.0140248 -0.019561 0)
(-0.00441911 -0.00972462 0)
(-0.000127911 -0.00152994 0)
(-0.000863972 0.00858428 0)
(-0.00881187 0.023147 0)
(-0.0216368 0.0339094 0)
(-0.0375561 0.0406059 0)
(-0.0548294 0.0435847 0)
(-0.0722368 0.0432292 0)
(-0.0887215 0.0397555 0)
(-0.103265 0.0332401 0)
(-0.11486 0.0237686 0)
(-0.122532 0.0116228 0)
(-0.125407 -0.00255448 0)
(-0.122819 -0.0176534 0)
(-0.114458 -0.032082 0)
(-0.100546 -0.0438796 0)
(-0.0820228 -0.051 0)
(-0.0606627 -0.0517913 0)
(-0.0390182 -0.0456233 0)
(-0.0200737 -0.033471 0)
(-0.00665548 -0.0181577 0)
(-0.000273874 -0.00409656 0)
(-0.00105936 0.013617 0)
(-0.0105526 0.0348516 0)
(-0.0256247 0.0496881 0)
(-0.0441154 0.0585686 0)
(-0.0640191 0.0622975 0)
(-0.0840285 0.0615149 0)
(-0.103065 0.05655 0)
(-0.120103 0.0475113 0)
(-0.134111 0.0344944 0)
(-0.144042 0.0178217 0)
(-0.148874 -0.00174601 0)
(-0.147694 -0.0228546 0)
(-0.139852 -0.043492 0)
(-0.125191 -0.0610538 0)
(-0.104337 -0.0726292 0)
(-0.0789957 -0.0755897 0)
(-0.0520839 -0.0684928 0)
(-0.0274968 -0.0520825 0)
(-0.00940882 -0.0298789 0)
(-0.000448613 -0.00783995 0)
(-0.00120619 0.0194729 0)
(-0.0119024 0.0483106 0)
(-0.0287508 0.0676628 0)
(-0.049298 0.0788938 0)
(-0.0713424 0.0834173 0)
(-0.0935391 0.0822227 0)
(-0.114842 0.0757939 0)
(-0.134276 0.0642707 0)
(-0.150841 0.0477201 0)
(-0.163459 0.0264291 0)
(-0.170967 0.00116858 0)
(-0.172176 -0.0265863 0)
(-0.166008 -0.054501 0)
(-0.151759 -0.0793454 0)
(-0.129506 -0.0972022 0)
(-0.100606 -0.104098 0)
(-0.0681359 -0.097196 0)
(-0.0369579 -0.0764128 0)
(-0.0130405 -0.0457386 0)
(-0.000703382 -0.0130888 0)
(-0.00129603 0.0259267 0)
(-0.0127913 0.0630639 0)
(-0.0308457 0.0872805 0)
(-0.052805 0.101017 0)
(-0.0763433 0.106423 0)
(-0.100126 0.104926 0)
(-0.123189 0.0972092 0)
(-0.14467 0.0834474 0)
(-0.163662 0.0636366 0)
(-0.179125 0.0379388 0)
(-0.189818 0.00699945 0)
(-0.19431 -0.0277541 0)
(-0.191073 -0.063836 0)
(-0.178746 -0.0975053 0)
(-0.156602 -0.123793 0)
(-0.125261 -0.137037 0)
(-0.0875301 -0.132272 0)
(-0.0490372 -0.107619 0)
(-0.0179464 -0.066909 0)
(-0.00110116 -0.0203761 0)
(-0.00132418 0.0327194 0)
(-0.0131726 0.0785733 0)
(-0.0317793 0.107872 0)
(-0.054372 0.124216 0)
(-0.0785652 0.13059 0)
(-0.103075 0.128942 0)
(-0.127066 0.120211 0)
(-0.149844 0.10462 0)
(-0.170681 0.0820637 0)
(-0.188671 0.0524971 0)
(-0.202613 0.0163014 0)
(-0.210954 -0.025342 0)
(-0.211807 -0.0700427 0)
(-0.20314 -0.113799 0)
(-0.183232 -0.150728 0)
(-0.15152 -0.173298 0)
(-0.109861 -0.173654 0)
(-0.0640419 -0.146718 0)
(-0.0245277 -0.0948073 0)
(-0.00172482 -0.0304526 0)
(-0.00129705 0.0395793 0)
(-0.0130619 0.0942547 0)
(-0.0315278 0.128671 0)
(-0.0538647 0.147604 0)
(-0.0776772 0.154951 0)
(-0.101767 0.153265 0)
(-0.125466 0.143805 0)
(-0.148312 0.126879 0)
(-0.169838 0.102277 0)
(-0.189396 0.0696958 0)
(-0.205994 0.0291378 0)
(-0.218158 -0.0186599 0)
(-0.223853 -0.071701 0)
(-0.220522 -0.126118 0)
(-0.205409 -0.175507 0)
(-0.176389 -0.210611 0)
(-0.133551 -0.220139 0)
(-0.081729 -0.194118 0)
(-0.0331359 -0.130907 0)
(-0.00268806 -0.0442953 0)
(-0.00124204 0.0462705 0)
(-0.0125879 0.109546 0)
(-0.0302625 0.148864 0)
(-0.051402 0.170156 0)
(-0.0736358 0.1783 0)
(-0.0958897 0.176548 0)
(-0.117711 0.166557 0)
(-0.138925 0.148773 0)
(-0.159407 0.122917 0)
(-0.178892 0.0884255 0)
(-0.196779 0.0448636 0)
(-0.211924 -0.0076294 0)
(-0.22246 -0.0677728 0)
(-0.225628 -0.132308 0)
(-0.21784 -0.194974 0)
(-0.195275 -0.24541 0)
(-0.155502 -0.268885 0)
(-0.100927 -0.24895 0)
(-0.0439454 -0.176375 0)
(-0.00414553 -0.0630974 0)
(-0.00122109 0.0526736 0)
(-0.0120577 0.124018 0)
(-0.0284506 0.167685 0)
(-0.0474829 0.190769 0)
(-0.0668426 0.199245 0)
(-0.0856479 0.197159 0)
(-0.10373 0.186647 0)
(-0.121259 0.168366 0)
(-0.138521 0.142028 0)
(-0.155724 0.106858 0)
(-0.172807 0.061996 0)
(-0.189212 0.00691379 0)
(-0.203577 -0.0580385 0)
(-0.213396 -0.130722 0)
(-0.214757 -0.205861 0)
(-0.202415 -0.273109 0)
(-0.171049 -0.315165 0)
(-0.119148 -0.308333 0)
(-0.0567063 -0.231458 0)
(-0.00629533 -0.0882089 0)
(-0.00135236 0.0589145 0)
(-0.0120409 0.137535 0)
(-0.0269563 0.184522 0)
(-0.0430824 0.208344 0)
(-0.0582329 0.216278 0)
(-0.0718612 0.213277 0)
(-0.0841984 0.202016 0)
(-0.0958321 0.183417 0)
(-0.107496 0.157247 0)
(-0.119912 0.122603 0)
(-0.133628 0.0782881 0)
(-0.148808 0.0231494 0)
(-0.164903 -0.0434524 0)
(-0.180184 -0.120863 0)
(-0.191123 -0.205625 0)
(-0.191824 -0.288887 0)
(-0.174374 -0.352663 0)
(-0.132386 -0.366836 0)
(-0.0703566 -0.294588 0)
(-0.00936007 -0.120954 0)
(-0.00185093 0.0655626 0)
(-0.0134886 0.150447 0)
(-0.0271258 0.199021 0)
(-0.0396539 0.221831 0)
(-0.0491958 0.227835 0)
(-0.0558211 0.223 0)
(-0.0603531 0.210531 0)
(-0.0638848 0.191608 0)
(-0.0676118 0.166087 0)
(-0.0727415 0.133018 0)
(-0.0803986 0.0909937 0)
(-0.0914805 0.0384031 0)
(-0.106394 -0.0262708 0)
(-0.124583 -0.103892 0)
(-0.14371 -0.193375 0)
(-0.158413 -0.288878 0)
(-0.159335 -0.374461 0)
(-0.135265 -0.416527 0)
(-0.0825391 -0.361336 0)
(-0.0134958 -0.162165 0)
(-0.00308865 0.0739234 0)
(-0.0178811 0.163791 0)
(-0.0307699 0.211091 0)
(-0.0388605 0.230151 0)
(-0.0410736 0.232242 0)
(-0.0386014 0.22435 0)
(-0.0331409 0.210066 0)
(-0.026388 0.190708 0)
(-0.0199866 0.166179 0)
(-0.0155482 0.135522 0)
(-0.0146564 0.0972479 0)
(-0.0188241 0.0495102 0)
(-0.0293569 -0.00976653 0)
(-0.04702 -0.0826508 0)
(-0.0712714 -0.170439 0)
(-0.0986221 -0.271342 0)
(-0.120196 -0.374499 0)
(-0.121386 -0.447881 0)
(-0.089094 -0.423744 0)
(-0.018483 -0.211379 0)
(-0.00558195 0.0865348 0)
(-0.0272143 0.179383 0)
(-0.0396074 0.220535 0)
(-0.0413464 0.231736 0)
(-0.0333955 0.227326 0)
(-0.0189216 0.215008 0)
(-0.000823308 0.198348 0)
(0.0185416 0.178524 0)
(0.0371467 0.155344 0)
(0.0531081 0.127825 0)
(0.0645549 0.0944891 0)
(0.0695584 0.0534794 0)
(0.0661261 0.00256462 0)
(0.0523287 -0.0609295 0)
(0.0267675 -0.140043 0)
(-0.00993139 -0.237115 0)
(-0.0516955 -0.348821 0)
(-0.0834377 -0.451232 0)
(-0.083569 -0.470781 0)
(-0.0231188 -0.266469 0)
(-0.00989439 0.108735 0)
(-0.0430382 0.199525 0)
(-0.052354 0.225593 0)
(-0.0420097 0.223059 0)
(-0.0181812 0.209307 0)
(0.0128782 0.191556 0)
(0.047003 0.172494 0)
(0.0813675 0.152675 0)
(0.113809 0.131578 0)
(0.142422 0.108127 0)
(0.165299 0.0809163 0)
(0.180355 0.0482683 0)
(0.18521 0.00816379 0)
(0.177152 -0.042007 0)
(0.153225 -0.105926 0)
(0.111053 -0.188879 0)
(0.0519539 -0.295817 0)
(-0.0127798 -0.417582 0)
(-0.0568902 -0.488776 0)
(-0.0246712 -0.323878 0)
(-0.0177987 0.151722 0)
(-0.0613095 0.22365 0)
(-0.0523294 0.217622 0)
(-0.0144939 0.194844 0)
(0.0351968 0.170931 0)
(0.0883093 0.148937 0)
(0.140871 0.129257 0)
(0.190603 0.111293 0)
(0.235916 0.0939975 0)
(0.275409 0.0761824 0)
(0.307548 0.0566027 0)
(0.330458 0.0339226 0)
(0.341756 0.00661565 0)
(0.338436 -0.027308 0)
(0.316681 -0.0710078 0)
(0.271893 -0.130413 0)
(0.199871 -0.216418 0)
(0.1028 -0.338308 0)
(0.00424593 -0.456737 0)
(-0.0159864 -0.369252 0)
(-0.0242032 0.208311 0)
(-0.0378823 0.230403 0)
(0.0372956 0.176544 0)
(0.125041 0.136825 0)
(0.205751 0.109001 0)
(0.277855 0.0881424 0)
(0.34203 0.0720497 0)
(0.398577 0.0591309 0)
(0.447552 0.0479998 0)
(0.488726 0.0375223 0)
(0.521438 0.0267463 0)
(0.544448 0.0148175 0)
(0.555861 0.000857628 0)
(0.553017 -0.016208 0)
(0.532086 -0.0382165 0)
(0.487593 -0.0691037 0)
(0.411046 -0.119084 0)
(0.290817 -0.209354 0)
(0.133089 -0.338292 0)
(0.0387459 -0.34035 0)
(0.241897 0.109146 0)
(0.313496 0.0971366 0)
(0.444379 0.0569759 0)
(0.549679 0.0351044 0)
(0.624077 0.0237262 0)
(0.679571 0.0166931 0)
(0.723395 0.0119655 0)
(0.75866 0.00868586 0)
(0.786921 0.0062556 0)
(0.80898 0.00424045 0)
(0.825018 0.00234365 0)
(0.834658 0.000357691 0)
(0.837032 -0.00189442 0)
(0.830714 -0.0045791 0)
(0.81339 -0.0080223 0)
(0.781159 -0.0128885 0)
(0.725723 -0.0212425 0)
(0.629883 -0.0381061 0)
(0.459271 -0.0855638 0)
(0.304891 -0.1257 0)
)
;

boundaryField
{
    movingWall
    {
        type            calculated;
        value           uniform (1 0 0);
    }
    fixedWalls
    {
        type            calculated;
        value           uniform (0 0 0);
    }
    frontAndBack
    {
        type            empty;
    }
}


// ************************************************************************* //
