/*--------------------------------*- C++ -*----------------------------------*\
  =========                 |
  \\      /  F ield         | OpenFOAM: The Open Source CFD Toolbox
   \\    /   O peration     | Website:  https://openfoam.org
    \\  /    A nd           | Version:  13
     \\/     M anipulation  |
\*---------------------------------------------------------------------------*/
FoamFile
{
    format      ascii;
    class       volScalarField;
    location    "25";
    object      p;
}
// * * * * * * * * * * * * * * * * * * * * * * * * * * * * * * * * * * * * * //

dimensions      [0 2 -2 0 0 0 0];

internalField   nonuniform List<scalar> 
400
(
-6.84557e-09
-0.000505815
-0.00111606
-0.00157873
-0.00177735
-0.00166503
-0.00122026
-0.000435409
0.000677809
0.00207462
0.00366335
0.00529952
0.00679588
0.00795171
0.00859999
0.00866089
0.00818392
0.00736301
0.00651304
0.00597528
0.000511725
-1.14769e-05
-0.000546606
-0.000913453
-0.00105635
-0.000949794
-0.000575703
7.74522e-05
0.00100674
0.00218139
0.00352918
0.00492994
0.00622233
0.00723
0.00780413
0.00787242
0.0074758
0.00677466
0.00601758
0.00546946
0.00114574
0.000487409
-7.82272e-05
-0.000413947
-0.000542617
-0.000471415
-0.000188369
0.000324932
0.00108046
0.0020675
0.00323591
0.0044854
0.0056684
0.00661286
0.00716434
0.00723713
0.00685285
0.00614158
0.00530102
0.00458555
0.00159472
0.000744501
6.89049e-05
-0.000307744
-0.000478806
-0.000483182
-0.00031333
6.0043e-05
0.000669362
0.00152898
0.00261234
0.0038344
0.00504806
0.00606351
0.0066924
0.00680772
0.00639417
0.00555537
0.00447333
0.00346432
0.00161808
0.00057231
-0.000239086
-0.000697752
-0.000957041
-0.0010807
-0.00106016
-0.000849648
-0.000390019
0.000364874
0.00141816
0.00270323
0.00407029
0.00529895
0.0061431
0.00640299
0.00599753
0.00499238
0.00357436
0.00217796
0.00101775
-0.000204421
-0.00115445
-0.00172221
-0.00211262
-0.00240706
-0.00259008
-0.00259356
-0.00232422
-0.00169413
-0.00065793
0.000749498
0.00238392
0.00399113
0.00524578
0.00583569
0.00556622
0.00442915
0.00261506
0.000733992
-0.000374366
-0.00174363
-0.00282742
-0.00352877
-0.00409749
-0.00462718
-0.00509156
-0.00539544
-0.00540371
-0.00497336
-0.00399654
-0.00245261
-0.00045534
0.00171805
0.00364824
0.00486277
0.00497974
0.00384242
0.0016094
-0.000867873
-0.00269134
-0.00417229
-0.00538164
-0.00624123
-0.0070408
-0.00788386
-0.00873262
-0.00946311
-0.00989204
-0.00980672
-0.00901112
-0.00739022
-0.00498544
-0.0020621
0.000870981
0.0031346
0.00405799
0.0032048
0.000604251
-0.00258411
-0.00602084
-0.00757335
-0.0088954
-0.00993304
-0.0110138
-0.0122529
-0.0136052
-0.0149205
-0.015965
-0.0164439
-0.0160452
-0.0145136
-0.0117549
-0.00795615
-0.00367361
0.000184776
0.00254329
0.00248604
-0.000285286
-0.00426772
-0.0103958
-0.0119753
-0.0133858
-0.0146021
-0.0159927
-0.0176925
-0.0196581
-0.0217215
-0.0236016
-0.0249157
-0.025214
-0.0240551
-0.0211364
-0.0164676
-0.0105568
-0.00450243
0.000123775
0.0016694
-0.000827819
-0.00558315
-0.0157933
-0.0173497
-0.0187992
-0.0201499
-0.0218248
-0.0239949
-0.0266332
-0.0295659
-0.0324742
-0.0348906
-0.0362184
-0.0357992
-0.0330564
-0.0277088
-0.0200679
-0.0112913
-0.00344733
0.00081809
-0.000598896
-0.00587582
-0.0221511
-0.0236229
-0.0250138
-0.0263717
-0.0282086
-0.0307593
-0.0340314
-0.0378583
-0.0418939
-0.0455959
-0.0482277
-0.0489091
-0.0467437
-0.0410748
-0.0318448
-0.0200443
-0.00808451
0.000246592
0.00115512
-0.00397376
-0.0294134
-0.0307101
-0.0318571
-0.0329622
-0.034697
-0.0374024
-0.0411373
-0.0457478
-0.050865
-0.05588
-0.0599297
-0.0619261
-0.0606649
-0.0550649
-0.0445669
-0.02973
-0.0129845
0.000825542
0.0057557
0.00209949
-0.03763
-0.0385768
-0.0391351
-0.0395331
-0.0407268
-0.0432151
-0.0471124
-0.0522654
-0.0582697
-0.0644441
-0.0698067
-0.0730845
-0.0727969
-0.0674593
-0.0559655
-0.0382376
-0.0163059
0.00433258
0.0154319
0.0154886
-0.047158
-0.0473416
-0.0466661
-0.0456346
-0.0456703
-0.0474618
-0.0511473
-0.0565313
-0.0631343
-0.0701756
-0.0765419
-0.0807829
-0.0811721
-0.0758751
-0.0632851
-0.0426271
-0.0151684
0.0136237
0.0335718
0.0407317
-0.059008
-0.0574455
-0.054327
-0.0507945
-0.0489227
-0.0495194
-0.0526419
-0.0579686
-0.0648772
-0.0724368
-0.079368
-0.0840255
-0.0844397
-0.0784584
-0.064046
-0.0398005
-0.00606326
0.0324849
0.0645996
0.0833148
-0.0754305
-0.0699672
-0.0620903
-0.0545531
-0.0499945
-0.0489998
-0.0513322
-0.0564161
-0.0634044
-0.0711552
-0.0781801
-0.0826073
-0.0822
-0.0744637
-0.0569208
-0.0275669
0.0142188
0.0652028
0.114135
0.149894
-0.103544
-0.0874123
-0.0696619
-0.0561089
-0.0482357
-0.0455028
-0.0470554
-0.0519097
-0.0589013
-0.0666397
-0.0734183
-0.0771314
-0.0752657
-0.0649308
-0.0430577
-0.0067419
0.0460546
0.114707
0.190972
0.25777
-0.175479
-0.114477
-0.0734674
-0.0519002
-0.0412155
-0.0374707
-0.0389232
-0.0440849
-0.051419
-0.0593234
-0.0659676
-0.0690911
-0.0659846
-0.0534154
-0.0276151
0.0157985
0.0818957
0.176496
0.304496
0.452063
-0.355354
-0.154854
-0.0702431
-0.0427699
-0.0313734
-0.0275049
-0.0294598
-0.0353878
-0.0434116
-0.0517857
-0.0586379
-0.0617164
-0.0582776
-0.0449601
-0.017395
0.0303594
0.107783
0.232656
0.434114
0.735243
)
;

boundaryField
{
    movingWall
    {
        type            zeroGradient;
    }
    fixedWalls
    {
        type            zeroGradient;
    }
    frontAndBack
    {
        type            empty;
    }
}


// ************************************************************************* //
