/*--------------------------------*- C++ -*----------------------------------*\
  =========                 |
  \\      /  F ield         | OpenFOAM: The Open Source CFD Toolbox
   \\    /   O peration     | Website:  https://openfoam.org
    \\  /    A nd           | Version:  13
     \\/     M anipulation  |
\*---------------------------------------------------------------------------*/
FoamFile
{
    format      ascii;
    class       surfaceScalarField;
    location    "25";
    object      phi;
}
// * * * * * * * * * * * * * * * * * * * * * * * * * * * * * * * * * * * * * //

dimensions      [0 3 -1 0 0 0 0];

internalField   nonuniform List<scalar> 
760
(
3.73402e-06
-3.73304e-06
-3.88777e-05
4.26115e-05
-0.000128921
9.00426e-05
-0.000250997
0.000122076
-0.000389674
0.000138675
-0.000531964
0.00014229
-0.000666411
0.000134446
-0.000781776
0.000115365
-0.000866481
8.47076e-05
-0.000909229
4.27513e-05
-0.000900773
-8.45454e-06
-0.000836515
-6.4257e-05
-0.000719192
-0.000117322
-0.00056073
-0.000158462
-0.000382167
-0.000178563
-0.000210866
-0.000171299
-7.49628e-05
-0.000135903
4.15346e-06
-7.91172e-05
2.10713e-05
-1.69193e-05
2.10705e-05
-4.60669e-05
4.23339e-05
-0.000203033
0.000199576
-0.000458217
0.000345225
-0.000779996
0.000443855
-0.00113523
0.000493901
-0.00149345
0.000500507
-0.00182628
0.000467282
-0.00210604
0.000395134
-0.00230558
0.000284248
-0.0024001
0.000137276
-0.00237097
-3.75749e-05
-0.00221064
-0.000224596
-0.00192744
-0.00040052
-0.00154867
-0.000537229
-0.00112001
-0.000607224
-0.00069989
-0.000591417
-0.000348433
-0.000487361
-0.000112177
-0.000315375
-7.34159e-06
-0.000121759
1.37281e-05
-0.000107812
0.000150146
-0.000390945
0.000482709
-0.000804939
0.000759218
-0.00130256
0.000941473
-0.00183856
0.0010299
-0.00237103
0.00103298
-0.00286029
0.000956549
-0.00326769
0.000802537
-0.00355602
0.000572583
-0.00369218
0.000273436
-0.00365181
-7.79453e-05
-0.00342511
-0.000451292
-0.00302261
-0.000803022
-0.00247911
-0.00108073
-0.00185385
-0.00123248
-0.00122464
-0.00122062
-0.000674677
-0.00103732
-0.000273068
-0.000716988
-5.37488e-05
-0.000341081
-4.00208e-05
-0.000166374
0.00031652
-0.000571061
0.000887395
-0.00113498
0.00132313
-0.00179288
0.00159938
-0.00248892
0.00172593
-0.00317333
0.0017174
-0.00379944
0.00158266
-0.00432181
0.00132491
-0.00469665
0.000947424
-0.0048845
0.000461281
-0.00485499
-0.000107457
-0.00459304
-0.000713239
-0.00410564
-0.00129042
-0.00342775
-0.00175861
-0.00262519
-0.00203504
-0.0017911
-0.00205471
-0.0010329
-0.00179553
-0.000449171
-0.00130071
-0.000102458
-0.000687793
-0.000142479
-0.000218633
0.000535154
-0.000733627
0.00140239
-0.00143402
0.00202352
-0.00223702
0.00240238
-0.00307753
0.00256644
-0.00390058
0.00254044
-0.00465572
0.00233781
-0.00529392
0.00196311
-0.00576697
0.00142047
-0.00602952
0.000723821
-0.00604328
-9.36945e-05
-0.00578328
-0.000973236
-0.00524608
-0.00182761
-0.00445887
-0.00254582
-0.00348727
-0.00300664
-0.00243726
-0.00310472
-0.00144487
-0.00278791
-0.000649474
-0.00209611
-0.000155511
-0.00118176
-0.000297991
-0.000263196
0.000798351
-0.000873237
0.00201243
-0.00169227
0.00284256
-0.00262249
0.0033326
-0.00359158
0.00353553
-0.00454182
0.00349068
-0.00542186
0.00321784
-0.0061817
0.00272294
-0.00677057
0.00200934
-0.00713747
0.00109072
-0.00723432
3.16619e-06
-0.0070216
-0.00118596
-0.00647824
-0.00237096
-0.00561446
-0.00340961
-0.00448659
-0.00413451
-0.00320812
-0.00438318
-0.00194667
-0.00404936
-0.000895751
-0.00314704
-0.000220425
-0.00185709
-0.000518418
-0.000298541
0.00109689
-0.000984624
0.00269852
-0.00189966
0.00375759
-0.00293428
0.00436722
-0.00401149
0.00461274
-0.00507327
0.00455246
-0.00607007
0.00421464
-0.00695365
0.00360653
-0.00767299
0.00272867
-0.00817273
0.00159046
-0.00839427
0.000224707
-0.00828098
-0.00129925
-0.00778764
-0.0028643
-0.00689746
-0.00429979
-0.00564471
-0.00538726
-0.00413862
-0.00588927
-0.002575
-0.00561298
-0.00121374
-0.00450831
-0.000306614
-0.00276421
-0.000825031
-0.000322995
0.00141989
-0.0010623
0.00343782
-0.00204528
0.00474056
-0.00315464
0.00547658
-0.0043112
0.0057693
-0.00545901
0.00570026
-0.00655299
0.00530862
-0.00754978
0.00460331
-0.00840133
0.00358022
-0.00905104
0.00224016
-0.00943235
0.000606022
-0.00947144
-0.00126017
-0.00909581
-0.00323994
-0.00825249
-0.00514312
-0.00693764
-0.00670211
-0.00523592
-0.00759099
-0.00335589
-0.00749301
-0.00162842
-0.00623577
-0.000424477
-0.00396816
-0.00124951
-0.000335349
0.00175524
-0.00110193
0.00420441
-0.00211944
0.00575807
-0.00326584
0.00662298
-0.00446184
0.00696531
-0.0056557
0.00689412
-0.00680946
0.00646238
-0.00788805
0.0056819
-0.00885086
0.00454304
-0.0096454
0.0030347
-0.0102029
0.00116357
-0.0104376
-0.00102553
-0.0102514
-0.00342618
-0.0095499
-0.00584457
-0.00827521
-0.00797679
-0.00645923
-0.00940697
-0.00429107
-0.00966117
-0.00215915
-0.00836769
-0.000585093
-0.00554221
-0.0018346
-0.000335915
0.00209115
-0.00110289
0.00497138
-0.00211764
0.00677282
-0.00325545
0.0077608
-0.00443865
0.00814851
-0.00562157
0.00807703
-0.00677593
0.00761674
-0.0078786
0.00678457
-0.00890163
0.00556606
-0.00980378
0.00393685
-0.0105233
0.00188309
-0.0109724
-0.000576432
-0.0110364
-0.00336221
-0.0105821
-0.00629883
-0.00948692
-0.00907199
-0.0076995
-0.0111944
-0.00534037
-0.0120203
-0.00281184
-0.0108962
-0.000799694
-0.00755436
-0.0026343
-0.000328019
0.00241917
-0.00107178
0.00571514
-0.00204582
0.00774686
-0.00312346
0.00883845
-0.0042302
0.00925526
-0.00532864
0.00917546
-0.00640278
0.00869088
-0.00744496
0.00782675
-0.00844503
0.00656613
-0.00938075
0.00487257
-0.0102082
0.00271058
-0.0108517
6.70561e-05
-0.0111959
-0.00301801
-0.0110821
-0.00641269
-0.0103247
-0.00982939
-0.00876668
-0.0127524
-0.00640197
-0.014385
-0.00356634
-0.0137319
-0.001078
-0.0100427
-0.0037123
-0.000319969
0.00273914
-0.00102667
0.00642184
-0.00192629
0.00864648
-0.00288945
0.00980161
-0.00384759
0.0102134
-0.004775
0.0101029
-0.00567118
0.00958706
-0.00654705
0.00870262
-0.00741439
0.00743346
-0.00827618
0.00573436
-0.00911618
0.00355058
-0.0098864
0.000837278
-0.0104903
-0.00241414
-0.0107683
-0.00613471
-0.0104917
-0.0101059
-0.00939581
-0.0138483
-0.00729817
-0.0164826
-0.00435895
-0.0166711
-0.00142405
-0.0129776
-0.00513635
-0.000327877
0.00306702
-0.00100204
0.00709601
-0.00180291
0.00944735
-0.00259759
0.0105963
-0.00332965
0.0109455
-0.00399161
0.0107648
-0.00460293
0.0101984
-0.00519597
0.00929566
-0.00580648
0.00804397
-0.00646568
0.00639356
-0.00719096
0.00427587
-0.00797287
0.00161918
-0.00875509
-0.00163192
-0.00940769
-0.00548211
-0.0096973
-0.00981629
-0.00927959
-0.014266
-0.00777783
-0.0179844
-0.00506494
-0.019384
-0.00182783
-0.0162147
-0.00696418
-0.000380181
0.0034472
-0.00105422
0.00777004
-0.00174359
0.0101367
-0.00231495
0.0111677
-0.00273792
0.0113684
-0.00303496
0.0110619
-0.00325221
0.0104156
-0.00344586
0.0094893
-0.00367548
0.00827359
-0.00399929
0.00671736
-0.00446817
0.00474475
-0.00511556
0.00226657
-0.00593908
-0.0008084
-0.00686855
-0.00455263
-0.00771614
-0.0089687
-0.00811938
-0.0138628
-0.00753962
-0.0185642
-0.00548809
-0.0214355
-0.00225085
-0.0194519
-0.00921503
-0.00052435
0.00397155
-0.00126494
0.00851064
-0.00183286
0.0107046
-0.00211201
0.0114468
-0.00212697
0.0113834
-0.00194922
0.0108841
-0.00166045
0.0101269
-0.00134266
0.00917152
-0.00107687
0.00800781
-0.000943408
0.0065839
-0.00102086
0.0048222
-0.00138149
0.0026272
-0.00207934
-0.000110556
-0.00312274
-0.00350923
-0.00441742
-0.00767402
-0.00566696
-0.0126132
-0.00626272
-0.0179684
-0.00535766
-0.0223406
-0.00260327
-0.0222063
-0.0118183
-0.000828888
0.00480043
-0.00172778
0.00940953
-0.00212613
0.011103
-0.00198671
0.0113074
-0.00144632
0.010843
-0.000652721
0.0100905
0.000268013
0.00920613
0.00120836
0.00823117
0.00207089
0.00714528
0.00276097
0.00589383
0.00318185
0.00440132
0.00323294
0.00257611
0.002813
0.000309394
0.00183555
-0.00253178
0.000274293
-0.00611277
-0.00172267
-0.0106163
-0.00361951
-0.0160716
-0.00432224
-0.0216378
-0.00270871
-0.0238199
-0.014527
-0.00135991
0.00616034
-0.00245542
0.010505
-0.00245611
0.0111037
-0.0016033
0.0104546
-0.000248244
0.00948794
0.00136128
0.00848101
0.00305819
0.00750921
0.00472016
0.0065692
0.00624615
0.00561929
0.00754023
0.00459975
0.00850087
0.00344068
0.00901388
0.0020631
0.00894807
0.000375202
0.00815785
-0.00174157
0.0065032
-0.00445811
0.00393605
-0.0080491
0.000755279
-0.0128908
-0.00194074
-0.0189418
-0.00227652
-0.0234841
-0.0168035
-0.00213701
0.00829735
-0.00293668
0.0113047
-0.00172405
0.00989102
0.000470077
0.00826045
0.00302138
0.00693664
0.00564272
0.00585967
0.00818368
0.00496825
0.0105495
0.00420337
0.012667
0.00350179
0.0144627
0.00280406
0.0158502
0.00205318
0.0167215
0.00119177
0.0169381
0.000158653
0.0163258
-0.00112928
0.0146669
-0.00279919
0.0117249
-0.0051071
0.00740953
-0.00857547
0.00241087
-0.0139432
-0.000900472
-0.0201728
-0.017704
-0.00248226
0.0107796
-7.66726e-06
0.00883013
0.00417468
0.00570867
0.00830943
0.0041257
0.0120838
0.00316229
0.0154697
0.00247379
0.0184708
0.00196714
0.0210953
0.00157881
0.0233418
0.00125537
0.025189
0.000956844
0.0265906
0.000651596
0.0274679
0.00031448
0.027705
-7.84405e-05
0.02714
-0.000564358
0.0255327
-0.00119187
0.0225204
-0.00209483
0.0175998
-0.0036548
0.0103877
-0.00673112
0.00246659
-0.0122516
-0.0152374
0.0107796
0.0196097
0.0253184
0.0294441
0.0326064
0.0350802
0.0370473
0.0386261
0.0398815
0.0408384
0.0414899
0.0418044
0.041726
0.0411616
0.0399698
0.0378749
0.0342201
0.027489
0.0152374
)
;

boundaryField
{
    movingWall
    {
        type            calculated;
        value           uniform 0;
    }
    fixedWalls
    {
        type            calculated;
        value           uniform 0;
    }
    frontAndBack
    {
        type            empty;
    }
}


// ************************************************************************* //
