/*--------------------------------*- C++ -*----------------------------------*\
  =========                 |
  \\      /  F ield         | OpenFOAM: The Open Source CFD Toolbox
   \\    /   O peration     | Website:  https://openfoam.org
    \\  /    A nd           | Version:  13
     \\/     M anipulation  |
\*---------------------------------------------------------------------------*/
FoamFile
{
    format      ascii;
    class       surfaceScalarField;
    location    "25";
    object      phi_0;
}
// * * * * * * * * * * * * * * * * * * * * * * * * * * * * * * * * * * * * * //

dimensions      [0 3 -1 0 0 0 0];

internalField   nonuniform List<scalar> 
760
(
3.58928e-06
-3.58895e-06
-3.88676e-05
4.24567e-05
-0.000128445
8.95775e-05
-0.000249835
0.00012139
-0.000387691
0.000137856
-0.0005291
0.000141409
-0.000662678
0.000133578
-0.000777274
0.000114597
-0.000861418
8.41447e-05
-0.000903919
4.25013e-05
-0.00089561
-8.30796e-06
-0.000831925
-6.36857e-05
-0.000715547
-0.000116377
-0.000558264
-0.000157284
-0.000380902
-0.000177361
-0.000210597
-0.000170306
-7.53e-05
-0.000135297
3.66553e-06
-7.89656e-05
2.07878e-05
-1.7123e-05
2.07873e-05
-4.58465e-05
4.22577e-05
-0.000201858
0.000198468
-0.000455466
0.000343185
-0.000775228
0.000441151
-0.0011282
0.000490825
-0.00148411
0.000497325
-0.0018148
0.000464269
-0.0020928
0.000392598
-0.00229118
0.00028252
-0.00238534
0.00013666
-0.00235677
-3.68714e-05
-0.00219792
-0.000222543
-0.00191697
-0.000397319
-0.00154094
-0.000533317
-0.00111509
-0.000603216
-0.000697417
-0.000587974
-0.000347697
-0.000485018
-0.000112309
-0.000314355
-7.6069e-06
-0.000121826
1.31798e-05
-0.000107087
0.000149345
-0.000388329
0.000479709
-0.000799563
0.00075442
-0.00129388
0.000935471
-0.00182635
0.00102329
-0.00235533
0.00102631
-0.00284146
0.000950394
-0.00324636
0.000797507
-0.00353314
0.000569297
-0.00366891
0.000272433
-0.00362945
-7.63371e-05
-0.00340492
-0.000447068
-0.00300565
-0.000796587
-0.00246607
-0.00107289
-0.00184492
-0.00122437
-0.00121944
-0.00121345
-0.000672346
-0.00103211
-0.000272473
-0.000714228
-5.3819e-05
-0.00034048
-4.06396e-05
-0.00016513
0.000314475
-0.000566979
0.000881559
-0.00112701
0.00131445
-0.00178048
0.00158894
-0.00247192
0.00171472
-0.00315192
0.00170632
-0.00377414
0.00157262
-0.0042935
0.00131686
-0.00466649
0.000942292
-0.0048539
0.000459838
-0.00482547
-0.000104768
-0.00456609
-0.000706449
-0.00408253
-0.00128014
-0.0034094
-0.00174602
-0.00261198
-0.00202179
-0.00178278
-0.00204265
-0.00102861
-0.00178629
-0.000447622
-0.00129522
-0.000102261
-0.000685843
-0.000142901
-0.000216949
0.000531424
-0.000728323
0.00139293
-0.00142393
0.00201006
-0.00222163
0.00238664
-0.00305676
0.00254985
-0.00387474
0.00252429
-0.00462548
0.00232336
-0.00526027
0.00195166
-0.00573121
0.00141323
-0.00599314
0.000721766
-0.00600789
-9.00124e-05
-0.0057505
-0.000963839
-0.00521737
-0.00181326
-0.00443538
-0.00252801
-0.00346968
-0.00298749
-0.00242559
-0.00308674
-0.00143841
-0.00277347
-0.000646844
-0.00208679
-0.000155015
-0.00117767
-0.000297916
-0.000261225
0.00079265
-0.000867159
0.00199887
-0.00168088
0.00282378
-0.00260529
0.00331105
-0.0035686
0.00351315
-0.00451344
0.00346913
-0.00538881
0.00319873
-0.006145
0.00270785
-0.0067315
0.00199972
-0.0070975
0.00108776
-0.00719499
7.4799e-06
-0.00698455
-0.00117428
-0.00644504
-0.00235278
-0.00558648
-0.00338657
-0.00446486
-0.00410911
-0.00319307
-0.00435852
-0.0019379
-0.00402864
-0.000891932
-0.00313275
-0.000219593
-0.00185001
-0.000517509
-0.000296499
0.00108915
-0.000978385
0.00268075
-0.00188804
0.00373343
-0.00291684
0.00433985
-0.00398829
0.00458461
-0.00504474
0.00452558
-0.00603692
0.00419091
-0.00691685
0.00358777
-0.00763366
0.00271654
-0.00813216
0.00158626
-0.00835388
0.000229199
-0.0082422
-0.00128597
-0.007752
-0.00284298
-0.00686647
-0.0042721
-0.00561973
-0.00535585
-0.00412057
-0.00585768
-0.00256396
-0.00558524
-0.00120866
-0.00448805
-0.000305401
-0.00275327
-0.00082291
-0.000321138
0.00141029
-0.00105662
0.00341624
-0.00203468
0.00471149
-0.00313875
0.00544393
-0.0042901
0.00573596
-0.00543311
0.00566859
-0.00652295
0.00528075
-0.0075164
0.00458122
-0.00836555
0.00356569
-0.00901384
0.00223455
-0.00939481
0.00061016
-0.00943466
-0.00124612
-0.00906106
-0.00321658
-0.00822118
-0.00511198
-0.0069113
-0.00666573
-0.00521592
-0.00755306
-0.00334298
-0.00745818
-0.00162214
-0.00620889
-0.00042285
-0.00395256
-0.00124576
-0.000333944
0.00174423
-0.00109755
0.00417985
-0.00211118
0.00572512
-0.00325336
0.00658611
-0.00444525
0.00692784
-0.00563535
0.0068587
-0.00678592
0.00643132
-0.00786196
0.00565726
-0.00882289
0.00452661
-0.00961616
0.00302782
-0.010173
0.00116704
-0.0104076
-0.00101153
-0.0102221
-0.00340215
-0.00952228
-0.00581176
-0.00825063
-0.00793737
-0.00643932
-0.00936437
-0.00427731
-0.0096202
-0.00215195
-0.00833424
-0.000583058
-0.00552146
-0.00182882
-0.000335201
0.00207943
-0.00110048
0.00494512
-0.00211288
0.00673752
-0.00324809
0.00772133
-0.00442876
0.00810851
-0.00560946
0.0080394
-0.00676206
0.00758392
-0.00786344
0.00675864
-0.00888554
0.00554872
-0.00978702
0.0039293
-0.0105059
0.00188596
-0.0109544
-0.000563076
-0.0110177
-0.00333884
-0.0105631
-0.00626642
-0.00946826
-0.00903217
-0.00768276
-0.0111499
-0.00532753
-0.0119754
-0.00280441
-0.0108574
-0.000797343
-0.00752852
-0.00262616
-0.000328161
0.00240759
-0.00107182
0.00568878
-0.00204544
0.00771115
-0.00312249
0.00879837
-0.00422867
0.0092147
-0.00532679
0.00913751
-0.00640093
0.00865806
-0.00744338
0.00780109
-0.00844385
0.00654919
-0.00937984
0.00486529
-0.0102072
0.00271328
-0.0108498
7.95909e-05
-0.0111924
-0.00299632
-0.0110761
-0.00638262
-0.0103163
-0.00979201
-0.00875678
-0.0127094
-0.00639252
-0.0143397
-0.0035598
-0.0136901
-0.00107555
-0.0100128
-0.00370171
-0.000321031
0.00272863
-0.00102938
0.00639713
-0.0019307
0.00861248
-0.00289548
0.00976314
-0.0038552
0.0101744
-0.0047843
0.0100666
-0.00568229
0.00955605
-0.00656004
0.00867884
-0.00742909
0.00741824
-0.00829216
0.00572835
-0.00913264
0.00355377
-0.00990215
0.000849096
-0.0105039
-0.00239459
-0.0107782
-0.00610831
-0.0104969
-0.0100733
-0.00939601
-0.0138103
-0.00729481
-0.0164409
-0.00435482
-0.0166301
-0.00142188
-0.0129457
-0.00512359
-0.000329801
0.00305843
-0.0010073
0.00707462
-0.00181195
0.00941713
-0.00261039
0.0105616
-0.0033461
0.0109101
-0.00401156
0.0107321
-0.00462624
0.0101707
-0.00522236
0.00927496
-0.0058355
0.00803138
-0.00649662
0.00638947
-0.00722281
0.00427997
-0.00800424
0.00163053
-0.00878427
-0.00161456
-0.00943272
-0.00545985
-0.00971629
-0.00978975
-0.00929129
-0.0142353
-0.00778245
-0.0179497
-0.00506472
-0.0193478
-0.00182644
-0.016184
-0.00695003
-0.000382779
0.0034412
-0.00106153
0.00775337
-0.00175644
0.010112
-0.00233341
0.0111385
-0.00276171
0.0113384
-0.00306363
0.011034
-0.00328521
0.0103923
-0.00348251
0.00947226
-0.00371496
0.00826384
-0.00404064
0.00671515
-0.00451028
0.00474961
-0.00515713
0.00227738
-0.00597857
-0.000793127
-0.00690411
-0.0045343
-0.0077457
-0.00894817
-0.00814099
-0.01384
-0.00755221
-0.0185385
-0.00549264
-0.0214074
-0.0022508
-0.0194258
-0.00920083
-0.00052729
0.00396849
-0.00127342
0.00849949
-0.00184804
0.0106867
-0.00213404
0.0114245
-0.00215542
0.0113598
-0.00198332
0.0108619
-0.00169922
0.0101082
-0.00138499
0.00915802
-0.00112157
0.00800041
-0.000989264
0.00658285
-0.00106673
0.00482707
-0.00142627
0.00263692
-0.00212192
-9.74749e-05
-0.00316185
-0.00349438
-0.00445145
-0.00765857
-0.00569396
-0.0125975
-0.00628087
-0.0179516
-0.00536648
-0.0223218
-0.00260499
-0.0221873
-0.0118058
-0.000831655
0.00480015
-0.00173606
0.0094039
-0.00214135
0.011092
-0.00200917
0.0112924
-0.00147555
0.0108262
-0.000687761
0.0100741
0.000228426
0.00919202
0.00116566
0.00822079
0.00202654
0.00713953
0.00271634
0.00589305
0.00313815
0.00440526
0.00319111
0.00258396
0.00277376
0.000319873
0.00179955
-0.00252016
0.000242347
-0.00610136
-0.00174929
-0.0106058
-0.00363908
-0.0160618
-0.00433333
-0.0216275
-0.00271209
-0.0238086
-0.0145179
-0.00136177
0.00616192
-0.00246169
0.0105038
-0.00246834
0.0110986
-0.00162209
0.0104461
-0.00027335
0.00947745
0.00133068
0.00847009
0.00302333
0.00749937
0.00468248
0.00656164
0.00620718
0.00561484
0.0075014
0.00459883
0.00846343
0.00344324
0.00897879
0.00206861
0.00891596
0.0003827
0.00812905
-0.00173325
0.00647789
-0.00445021
0.00391459
-0.00804253
0.000738625
-0.0128859
-0.00195138
-0.0189375
-0.00228029
-0.0234797
-0.0167982
-0.00213727
0.00829919
-0.00293923
0.0113058
-0.00173045
0.00988982
0.000458826
0.00825684
0.00300497
0.0069313
0.00562145
0.00585361
0.00815834
0.00496248
0.0105212
0.00419874
0.0126372
0.00349889
0.0144327
0.00280331
0.0158213
0.00205466
0.0166948
0.00119513
0.0169143
0.000163203
0.0163054
-0.00112435
0.0146499
-0.00279475
0.0117111
-0.00510375
0.00739882
-0.00857356
0.00240353
-0.0139422
-0.000903771
-0.0201723
-0.017702
-0.00248131
0.0107805
-6.78431e-06
0.00883126
0.00417428
0.00570875
0.00830643
0.00412468
0.0120773
0.00316042
0.0154594
0.00247153
0.0184569
0.00196501
0.0210784
0.00157718
0.0233228
0.0012545
0.0251693
0.000956852
0.0265715
0.00065242
0.0274507
0.000315936
0.0276904
-7.65203e-05
0.0271285
-0.000562432
0.025524
-0.00119024
0.0225142
-0.00209396
0.0175954
-0.00365474
0.0103847
-0.00673152
0.00246469
-0.0122523
-0.0152373
0.0107805
0.0196118
0.0253205
0.0294452
0.0326056
0.0350771
0.0370421
0.0386193
0.0398738
0.0408307
0.0414831
0.041799
0.0417225
0.0411601
0.0399698
0.0378759
0.0342211
0.0274896
0.0152373
)
;

boundaryField
{
    movingWall
    {
        type            calculated;
        value           uniform 0;
    }
    fixedWalls
    {
        type            calculated;
        value           uniform 0;
    }
    frontAndBack
    {
        type            empty;
    }
}


// ************************************************************************* //
