/*--------------------------------*- C++ -*----------------------------------*\
  =========                 |
  \\      /  F ield         | OpenFOAM: The Open Source CFD Toolbox
   \\    /   O peration     | Website:  https://openfoam.org
    \\  /    A nd           | Version:  13
     \\/     M anipulation  |
\*---------------------------------------------------------------------------*/
FoamFile
{
    format      ascii;
    class       volVectorField;
    location    "25";
    object      U;
}
// * * * * * * * * * * * * * * * * * * * * * * * * * * * * * * * * * * * * * //

dimensions      [0 1 -1 0 0 0 0];

internalField   nonuniform List<vector> 
400
(
(0.000168591 -0.00017204 0)
(-0.000155363 4.07121e-05 0)
(-0.00151478 0.000271319 0)
(-0.00369675 0.000418334 0)
(-0.00636661 0.00049542 0)
(-0.0092322 0.000523246 0)
(-0.0120516 0.00051158 0)
(-0.0146007 0.000459968 0)
(-0.0166504 0.000362547 0)
(-0.0179668 0.000214671 0)
(-0.0183358 1.97344e-05 0)
(-0.017609 -0.000205601 0)
(-0.0157598 -0.000429091 0)
(-0.0129323 -0.00060647 0)
(-0.00946209 -0.000691191 0)
(-0.00584952 -0.000649132 0)
(-0.00267598 -0.000472931 0)
(-0.00046734 -0.000190583 0)
(0.000487608 0.00012 0)
(0.000293225 0.000286523 0)
(-5.56036e-05 0.000153758 0)
(-0.00201519 0.00188289 0)
(-0.00621906 0.00364327 0)
(-0.0121474 0.0048578 0)
(-0.0190747 0.00549379 0)
(-0.0263529 0.00562528 0)
(-0.0333993 0.00530343 0)
(-0.0396564 0.00453745 0)
(-0.0445712 0.00332015 0)
(-0.0476106 0.0016701 0)
(-0.0483212 -0.00032625 0)
(-0.0464201 -0.00248677 0)
(-0.0418995 -0.00453113 0)
(-0.0351112 -0.00611386 0)
(-0.0267979 -0.0068954 0)
(-0.0180354 -0.00664182 0)
(-0.0100654 -0.00532757 0)
(-0.00402679 -0.00321127 0)
(-0.000618643 -0.000892075 0)
(0.00020231 0.000535345 0)
(-0.00034876 0.00167968 0)
(-0.00431214 0.00625208 0)
(-0.0114163 0.0103039 0)
(-0.0207716 0.0130411 0)
(-0.031334 0.0144173 0)
(-0.0422244 0.0145563 0)
(-0.0526371 0.0135487 0)
(-0.0617906 0.0114211 0)
(-0.0689179 0.00818869 0)
(-0.0732979 0.00393992 0)
(-0.0743319 -0.00108225 0)
(-0.0716532 -0.00642993 0)
(-0.0652492 -0.0114526 0)
(-0.0555653 -0.015369 0)
(-0.0435532 -0.0174158 0)
(-0.0306218 -0.0170595 0)
(-0.0184504 -0.0142241 0)
(-0.00866052 -0.00946507 0)
(-0.00241646 -0.0040484 0)
(1.88278e-05 -5.10935e-05 0)
(-0.000613664 0.00443675 0)
(-0.00652251 0.0131712 0)
(-0.0164067 0.0201464 0)
(-0.028941 0.0246804 0)
(-0.0427603 0.0268336 0)
(-0.0568122 0.026818 0)
(-0.0701507 0.0247738 0)
(-0.0818582 0.0207516 0)
(-0.0910332 0.0148015 0)
(-0.0968245 0.00710467 0)
(-0.0985088 -0.00190621 0)
(-0.0956044 -0.0114718 0)
(-0.0880044 -0.0205067 0)
(-0.0761102 -0.0277014 0)
(-0.0609285 -0.0317454 0)
(-0.044078 -0.0316645 0)
(-0.0276373 -0.027215 0)
(-0.0137931 -0.0192083 0)
(-0.00436849 -0.00962895 0)
(-0.000139088 -0.00158614 0)
(-0.000841859 0.00831436 0)
(-0.00850582 0.0224294 0)
(-0.0209259 0.0328685 0)
(-0.0363486 0.0393749 0)
(-0.0531063 0.04228 0)
(-0.0700153 0.0419556 0)
(-0.0860515 0.0386164 0)
(-0.100229 0.0323407 0)
(-0.11157 0.0232085 0)
(-0.119122 0.0114811 0)
(-0.122025 -0.00223511 0)
(-0.119618 -0.0168822 0)
(-0.111581 -0.0309276 0)
(-0.0981148 -0.0424707 0)
(-0.0801225 -0.0495136 0)
(-0.0593259 -0.0504269 0)
(-0.0382122 -0.0445607 0)
(-0.0196987 -0.0328182 0)
(-0.00654928 -0.0179042 0)
(-0.000283643 -0.00412156 0)
(-0.00103144 0.0131663 0)
(-0.0101979 0.0337532 0)
(-0.0248157 0.0481534 0)
(-0.0427602 0.056798 0)
(-0.062107 0.0604543 0)
(-0.0815859 0.0597414 0)
(-0.10015 0.0549828 0)
(-0.116803 0.0462847 0)
(-0.130538 0.0337323 0)
(-0.140327 0.0176204 0)
(-0.14516 -0.00133597 0)
(-0.144128 -0.021843 0)
(-0.136581 -0.0419587 0)
(-0.12235 -0.0591512 0)
(-0.102039 -0.0705744 0)
(-0.0773104 -0.0736409 0)
(-0.0510151 -0.0669018 0)
(-0.0269665 -0.0510277 0)
(-0.00924066 -0.0293926 0)
(-0.000456658 -0.0078042 0)
(-0.0011766 0.0188234 0)
(-0.0115376 0.0468022 0)
(-0.0279248 0.0656038 0)
(-0.047923 0.0765583 0)
(-0.0694137 0.0810177 0)
(-0.0910884 0.0799376 0)
(-0.111929 0.0737894 0)
(-0.130984 0.0627058 0)
(-0.147274 0.0467378 0)
(-0.159731 0.0261388 0)
(-0.167202 0.00162881 0)
(-0.168504 -0.0253815 0)
(-0.162564 -0.0526329 0)
(-0.148681 -0.0769756 0)
(-0.126926 -0.0945729 0)
(-0.0986306 -0.101517 0)
(-0.0668208 -0.0949916 0)
(-0.0362684 -0.0748569 0)
(-0.0128041 -0.0449397 0)
(-0.000708412 -0.0129593 0)
(-0.00126981 0.0250841 0)
(-0.0124616 0.0611589 0)
(-0.0300964 0.0847167 0)
(-0.0515567 0.0981413 0)
(-0.0745948 0.103496 0)
(-0.0979099 0.102159 0)
(-0.120562 0.0947933 0)
(-0.141706 0.0815599 0)
(-0.160447 0.0624325 0)
(-0.17575 0.0375352 0)
(-0.186376 0.00746097 0)
(-0.190897 -0.0264279 0)
(-0.187794 -0.0617187 0)
(-0.175719 -0.0947521 0)
(-0.153958 -0.120649 0)
(-0.123135 -0.133837 0)
(-0.0860335 -0.129414 0)
(-0.0482037 -0.105483 0)
(-0.0176385 -0.0657199 0)
(-0.00110081 -0.0201159 0)
(-0.00130648 0.0317153 0)
(-0.0129241 0.0763316 0)
(-0.0312024 0.104877 0)
(-0.0534003 0.120878 0)
(-0.0771986 0.127214 0)
(-0.101344 0.125769 0)
(-0.12502 0.117453 0)
(-0.147546 0.102464 0)
(-0.168196 0.0806686 0)
(-0.186059 0.0519801 0)
(-0.19993 0.0167259 0)
(-0.208249 -0.0239728 0)
(-0.209134 -0.0677923 0)
(-0.200568 -0.110803 0)
(-0.180861 -0.147209 0)
(-0.149485 -0.169584 0)
(-0.108321 -0.170179 0)
(-0.063115 -0.143971 0)
(-0.0241538 -0.0931662 0)
(-0.00171576 -0.0300231 0)
(-0.00129212 0.0384705 0)
(-0.0129349 0.0917809 0)
(-0.0312083 0.125369 0)
(-0.0533039 0.143935 0)
(-0.0768741 0.151256 0)
(-0.100747 0.149812 0)
(-0.124271 0.14082 0)
(-0.14699 0.124553 0)
(-0.168434 0.100765 0)
(-0.18794 0.0691034 0)
(-0.204499 0.0295174 0)
(-0.21662 -0.0173112 0)
(-0.222259 -0.0694426 0)
(-0.218869 -0.123059 0)
(-0.203732 -0.171826 0)
(-0.174785 -0.20659 0)
(-0.132191 -0.216196 0)
(-0.0808117 -0.190813 0)
(-0.0327185 -0.128791 0)
(-0.00266641 -0.0436617 0)
(-0.00125225 0.0451331 0)
(-0.0126104 0.106981 0)
(-0.0302617 0.145426 0)
(-0.0513507 0.166331 0)
(-0.0735306 0.174459 0)
(-0.0957473 0.172982 0)
(-0.117562 0.163499 0)
(-0.138802 0.146415 0)
(-0.159332 0.1214 0)
(-0.178868 0.0878351 0)
(-0.196779 0.0452263 0)
(-0.211896 -0.00633971 0)
(-0.222325 -0.0656144 0)
(-0.225299 -0.129374 0)
(-0.217266 -0.191392 0)
(-0.194474 -0.241378 0)
(-0.154609 -0.264745 0)
(-0.10018 -0.245259 0)
(-0.0435331 -0.173832 0)
(-0.00410754 -0.0622397 0)
(-0.00124636 0.0515948 0)
(-0.0122401 0.121528 0)
(-0.028795 0.164308 0)
(-0.0479869 0.186993 0)
(-0.0674974 0.195457 0)
(-0.086457 0.193665 0)
(-0.104706 0.183689 0)
(-0.122413 0.166129 0)
(-0.13985 0.140635 0)
(-0.157204 0.106367 0)
(-0.174383 0.0624017 0)
(-0.190789 0.00815643 0)
(-0.205028 -0.0560411 0)
(-0.21458 -0.128062 0)
(-0.215535 -0.202622 0)
(-0.202706 -0.269393 0)
(-0.170899 -0.311185 0)
(-0.118766 -0.30455 0)
(-0.0563769 -0.228633 0)
(-0.00623856 -0.0871363 0)
(-0.00139014 0.0579815 0)
(-0.0123732 0.135287 0)
(-0.0276306 0.181411 0)
(-0.0441222 0.204828 0)
(-0.0596218 0.212744 0)
(-0.0735823 0.210039 0)
(-0.0862361 0.199316 0)
(-0.0981653 0.181431 0)
(-0.11009 0.156082 0)
(-0.122714 0.122292 0)
(-0.136561 0.078792 0)
(-0.151764 0.024375 0)
(-0.167741 -0.0416302 0)
(-0.182738 -0.118553 0)
(-0.193207 -0.20289 0)
(-0.193271 -0.285753 0)
(-0.175119 -0.349199 0)
(-0.132534 -0.363325 0)
(-0.0702073 -0.291726 0)
(-0.00928688 -0.119717 0)
(-0.00189651 0.0648511 0)
(-0.0139391 0.148594 0)
(-0.0280696 0.196366 0)
(-0.0411394 0.218769 0)
(-0.0511986 0.224734 0)
(-0.0582979 0.220165 0)
(-0.0632508 0.2082 0)
(-0.0671394 0.189948 0)
(-0.0711486 0.16519 0)
(-0.0764755 0.132901 0)
(-0.0842355 0.0915982 0)
(-0.0953143 0.0396087 0)
(-0.110103 -0.0246178 0)
(-0.128025 -0.101931 0)
(-0.14671 -0.191186 0)
(-0.160772 -0.286453 0)
(-0.160892 -0.371757 0)
(-0.135991 -0.413627 0)
(-0.0826553 -0.358742 0)
(-0.0134217 -0.160863 0)
(-0.00313487 0.0734859 0)
(-0.0183944 0.162446 0)
(-0.0318734 0.209038 0)
(-0.0406264 0.227695 0)
(-0.0434725 0.229706 0)
(-0.0415649 0.222016 0)
(-0.0365759 0.208156 0)
(-0.030185 0.189379 0)
(-0.0240283 0.165517 0)
(-0.0197173 0.13554 0)
(-0.0188433 0.0978874 0)
(-0.0229305 0.0506483 0)
(-0.0332939 -0.00829345 0)
(-0.0506979 -0.0810068 0)
(-0.0745752 -0.168737 0)
(-0.101388 -0.269595 0)
(-0.122236 -0.372623 0)
(-0.122565 -0.445807 0)
(-0.0894985 -0.421716 0)
(-0.018442 -0.210163 0)
(-0.00561742 0.0863849 0)
(-0.0277052 0.178596 0)
(-0.0407021 0.219162 0)
(-0.04314 0.229972 0)
(-0.0358655 0.225427 0)
(-0.0219878 0.213213 0)
(-0.00436638 0.196856 0)
(0.0146626 0.17748 0)
(0.0330798 0.154834 0)
(0.0489949 0.127872 0)
(0.0605183 0.0950518 0)
(0.0656943 0.0544553 0)
(0.0625014 0.0038057 0)
(0.048987 -0.0595882 0)
(0.0237525 -0.138742 0)
(-0.0125392 -0.235914 0)
(-0.0537624 -0.34767 0)
(-0.0847965 -0.449999 0)
(-0.0841766 -0.469476 0)
(-0.0231412 -0.265507 0)
(-0.00990046 0.108821 0)
(-0.0433893 0.19924 0)
(-0.053212 0.224867 0)
(-0.0434913 0.221972 0)
(-0.0202937 0.208034 0)
(0.0101951 0.190284 0)
(0.0438608 0.171389 0)
(0.0779073 0.151867 0)
(0.110184 0.131152 0)
(0.138783 0.10812 0)
(0.161777 0.0813125 0)
(0.177054 0.0489963 0)
(0.182199 0.00910676 0)
(0.174462 -0.0409916 0)
(0.150862 -0.104976 0)
(0.109016 -0.188085 0)
(0.0502708 -0.295183 0)
(-0.0139878 -0.416983 0)
(-0.0575201 -0.4881 0)
(-0.0247458 -0.323267 0)
(-0.0177547 0.15191 0)
(-0.0614097 0.223697 0)
(-0.0527298 0.21738 0)
(-0.0153319 0.194315 0)
(0.03386 0.17021 0)
(0.0864749 0.148151 0)
(0.1386 0.12853 0)
(0.188003 0.110729 0)
(0.233119 0.0936687 0)
(0.272557 0.0761294 0)
(0.304774 0.0568272 0)
(0.327879 0.0343804 0)
(0.33946 0.00722578 0)
(0.336476 -0.0266526 0)
(0.315071 -0.0704127 0)
(0.2706 -0.129957 0)
(0.19883 -0.216131 0)
(0.102029 -0.338111 0)
(0.00377874 -0.456552 0)
(-0.0161059 -0.368965 0)
(-0.0241328 0.208471 0)
(-0.0377671 0.230565 0)
(0.0373514 0.176561 0)
(0.124906 0.136658 0)
(0.205304 0.108695 0)
(0.277036 0.0877691 0)
(0.340831 0.0716844 0)
(0.397047 0.0588371 0)
(0.44579 0.0478227 0)
(0.486836 0.0374977 0)
(0.519572 0.0268741 0)
(0.54274 0.01507 0)
(0.554407 0.00118506 0)
(0.551866 -0.0158674 0)
(0.531242 -0.0379245 0)
(0.487005 -0.0689059 0)
(0.410663 -0.119 0)
(0.290534 -0.209346 0)
(0.13293 -0.338301 0)
(0.0386015 -0.340288 0)
(0.241938 0.109196 0)
(0.313642 0.0972077 0)
(0.444588 0.0570089 0)
(0.54985 0.0350992 0)
(0.624102 0.0236923 0)
(0.679382 0.0166445 0)
(0.72298 0.0119198 0)
(0.758054 0.00865764 0)
(0.786194 0.00625529 0)
(0.808218 0.0042706 0)
(0.824308 0.00239605 0)
(0.834073 0.000420593 0)
(0.836621 -0.00183505 0)
(0.830496 -0.0045298 0)
(0.813347 -0.00799059 0)
(0.781238 -0.0128918 0)
(0.725836 -0.0212865 0)
(0.629967 -0.0381642 0)
(0.459289 -0.0856475 0)
(0.304879 -0.125714 0)
)
;

boundaryField
{
    movingWall
    {
        type            fixedValue;
        value           uniform (1 0 0);
    }
    fixedWalls
    {
        type            fixedValue;
        value           uniform (0 0 0);
    }
    frontAndBack
    {
        type            empty;
    }
}


// ************************************************************************* //
