/*--------------------------------*- C++ -*----------------------------------*\
  =========                 |
  \\      /  F ield         | OpenFOAM: The Open Source CFD Toolbox
   \\    /   O peration     | Website:  https://openfoam.org
    \\  /    A nd           | Version:  13
     \\/     M anipulation  |
\*---------------------------------------------------------------------------*/
FoamFile
{
    format      ascii;
    class       surfaceScalarField;
    location    "10";
    object      phi;
}
// * * * * * * * * * * * * * * * * * * * * * * * * * * * * * * * * * * * * * //

dimensions      [0 3 -1 0 0 0 0];

internalField   nonuniform List<scalar> 
760
(
-5.16237e-07
5.16668e-07
-3.79471e-05
3.74307e-05
-0.000111685
7.37376e-05
-0.000209065
9.73789e-05
-0.000317603
0.000108539
-0.000426913
0.000109311
-0.000528301
0.000101388
-0.000613927
8.56266e-05
-0.000676314
6.23877e-05
-0.000708476
3.2162e-05
-0.000704708
-3.76767e-06
-0.000661923
-4.27847e-05
-0.000581205
-8.07184e-05
-0.000469131
-0.000112074
-0.000338282
-0.000130849
-0.00020637
-0.000131912
-9.36463e-05
-0.000112724
-1.85285e-05
-7.51183e-05
8.84337e-06
-2.73724e-05
8.8432e-06
-3.89621e-05
3.94786e-05
-0.000163502
0.000161969
-0.000363094
0.000273328
-0.000611857
0.000346142
-0.000883353
0.000380036
-0.0011539
0.000379858
-0.00140253
0.000350017
-0.00161005
0.000293154
-0.00175859
0.000210925
-0.00183213
0.000105701
-0.00181836
-1.75372e-05
-0.00171142
-0.000149726
-0.00151506
-0.00027708
-0.00124514
-0.000381991
-0.000930392
-0.000445594
-0.000610192
-0.000452113
-0.000328614
-0.000394302
-0.000124852
-0.00027888
-2.09585e-05
-0.000131266
-1.21159e-05
-8.34892e-05
0.000122967
-0.00030046
0.000378939
-0.000615844
0.000588712
-0.000992634
0.000722932
-0.00139544
0.000782842
-0.00179226
0.000776682
-0.00215423
0.000711983
-0.00245472
0.000593648
-0.00266909
0.000425299
-0.00277559
0.000212199
-0.00275765
-3.54768e-05
-0.00260733
-0.000300043
-0.0023292
-0.000555202
-0.0019437
-0.000767494
-0.00148842
-0.000900874
-0.00101587
-0.000924664
-0.000586274
-0.000823901
-0.000255451
-0.000609706
-5.99588e-05
-0.000326756
-7.20754e-05
-0.000123809
0.000246776
-0.00042727
0.000682399
-0.000850005
0.00101145
-0.0013421
0.00121502
-0.00186032
0.00130107
-0.00236695
0.00128332
-0.00282816
0.00117319
-0.00321258
0.000978063
-0.0034908
0.000703518
-0.00363628
0.000357687
-0.00362784
-4.39161e-05
-0.0034535
-0.000474388
-0.00311526
-0.000893437
-0.00263385
-0.0012489
-0.0020517
-0.00148302
-0.00143207
-0.00154429
-0.00085191
-0.00140406
-0.000387683
-0.00107393
-9.71501e-05
-0.000617288
-0.000169226
-0.000159693
0.00040647
-0.000542604
0.00106531
-0.00106503
0.00153387
-0.00166417
0.00181417
-0.00228965
0.00192655
-0.00289962
0.00189328
-0.00345727
0.00173085
-0.0039283
0.0014491
-0.00427966
0.00105487
-0.00447999
0.000558017
-0.00450195
-2.19519e-05
-0.00432646
-0.000649881
-0.00394858
-0.00127131
-0.00338447
-0.00181302
-0.00267751
-0.00218998
-0.00190071
-0.0023211
-0.00115116
-0.00215361
-0.00053372
-0.00169137
-0.000136079
-0.00101493
-0.000305306
-0.000192252
0.000598722
-0.000648393
0.00152145
-0.00126383
0.00214931
-0.00196389
0.00251422
-0.00269205
0.00265472
-0.00340377
0.002605
-0.00406093
0.00238801
-0.00462777
0.00201593
-0.00506838
0.00149549
-0.00534633
0.000835966
-0.00542636
5.80755e-05
-0.00527876
-0.000797475
-0.00488655
-0.00166352
-0.00425521
-0.00244435
-0.0034236
-0.00302159
-0.0024721
-0.0032726
-0.00152147
-0.00310424
-0.000715131
-0.00249772
-0.000183925
-0.00154614
-0.000489231
-0.000222431
0.000821152
-0.000746314
0.00204534
-0.00144839
0.00285139
-0.00224336
0.00330919
-0.00306987
0.00348123
-0.0038822
0.00341733
-0.00464265
0.00314846
-0.00531556
0.00268884
-0.00586335
0.00204328
-0.00624467
0.00121729
-0.00641521
0.000228617
-0.00633161
-0.000881074
-0.00595951
-0.00203563
-0.00528625
-0.00311761
-0.00433777
-0.00397007
-0.00319551
-0.00441486
-0.00200442
-0.00429532
-0.000957802
-0.00354434
-0.000249452
-0.00225449
-0.000738684
-0.000250706
0.00107186
-0.000836788
0.00263142
-0.00161815
0.00363275
-0.00249991
0.00419095
-0.00341721
0.00439853
-0.00432484
0.00432495
-0.00518742
0.00401104
-0.00597146
0.00347288
-0.00663953
0.00271136
-0.00714687
0.00172463
-0.00744051
0.000522258
-0.00746206
-0.000859527
-0.00715552
-0.00234217
-0.00648204
-0.00379108
-0.00544285
-0.00500927
-0.00410782
-0.00574988
-0.00263951
-0.00576364
-0.00128985
-0.004894
-0.000342783
-0.00320156
-0.00108147
-0.000277268
0.00134913
-0.000919217
0.00327336
-0.00177011
0.00448364
-0.00272598
0.00514681
-0.00371962
0.00539217
-0.00470805
0.00531339
-0.0056604
0.00496338
-0.00654785
0.00436033
-0.00733615
0.00349965
-0.00798029
0.00236877
-0.00842163
0.000963606
-0.00858843
-0.000692731
-0.00840182
-0.00252877
-0.00779009
-0.00440282
-0.00671582
-0.00608354
-0.00521706
-0.00724864
-0.00345507
-0.00752563
-0.00173939
-0.00660968
-0.000475702
-0.00446525
-0.00155717
-0.000302559
0.00165168
-0.000993165
0.00396397
-0.00190037
0.00539084
-0.00291074
0.00615718
-0.00395567
0.00643709
-0.00499616
0.00635388
-0.00600815
0.00597537
-0.00697059
0.00532277
-0.00785639
0.00438545
-0.00862551
0.00313788
-0.0092198
0.0015579
-0.00956004
-0.000352486
-0.00954874
-0.00254007
-0.0090791
-0.00487246
-0.0080625
-0.00710014
-0.00647886
-0.00883228
-0.00445291
-0.00955158
-0.0023295
-0.00873309
-0.000661849
-0.00613291
-0.00221902
-0.000328268
0.00197995
-0.00106056
0.00469626
-0.00200704
0.00633732
-0.00304347
0.00719361
-0.00410074
0.00749436
-0.00514581
0.00739895
-0.00616397
0.00699353
-0.00714529
0.00630409
-0.00807462
0.00531478
-0.00892367
0.00398693
-0.00964401
0.00227825
-0.0101594
0.000162859
-0.010365
-0.0023344
-0.010125
-0.00511246
-0.00929419
-0.00793098
-0.00776806
-0.0103584
-0.00558428
-0.0117354
-0.00306735
-0.01125
-0.000916092
-0.00828416
-0.00313511
-0.000359011
0.00233896
-0.00112916
0.00546641
-0.00209461
0.00730277
-0.00311827
0.00821726
-0.00413238
0.00850847
-0.00511273
0.0083793
-0.00605699
0.00793779
-0.0069698
0.0072169
-0.00785281
0.00619779
-0.00869667
0.00483079
-0.00947289
0.00305447
-0.0101253
0.000815247
-0.0105552
-0.00190446
-0.0106174
-0.00505027
-0.0101182
-0.00843015
-0.00885376
-0.0116229
-0.00671886
-0.0138703
-0.00392401
-0.0140449
-0.00125172
-0.0109565
-0.00438683
-0.000405142
0.0027441
-0.00121741
0.00627868
-0.00217907
0.00826443
-0.00313884
0.00917703
-0.0040353
0.00940493
-0.00485845
0.00920245
-0.00562245
0.00870179
-0.00635001
0.00794446
-0.00706355
0.00691133
-0.0077787
0.00554594
-0.00849677
0.00377254
-0.00919396
0.00151244
-0.00980359
-0.00129483
-0.0101961
-0.00465777
-0.0101573
-0.00846896
-0.00939331
-0.0123869
-0.00761633
-0.0156472
-0.00480449
-0.0168567
-0.00167276
-0.0140882
-0.00605959
-0.000487472
0.00323158
-0.0013608
0.007152
-0.00229189
0.00919552
-0.0031192
0.0100043
-0.00380028
0.010086
-0.00434963
0.0097518
-0.0048041
0.00915626
-0.0052079
0.00834825
-0.00560649
0.00730993
-0.00604308
0.00598253
-0.00655381
0.00428326
-0.00715802
0.00211666
-0.00783996
-0.00061289
-0.00851895
-0.00397878
-0.00900583
-0.00798209
-0.0089614
-0.0124313
-0.0079175
-0.0166911
-0.00551351
-0.0192607
-0.00215695
-0.0174447
-0.00821654
-0.000644331
0.00387591
-0.00161693
0.0081246
-0.00247563
0.0100542
-0.00306916
0.0105979
-0.00340242
0.0104193
-0.0035328
0.00988217
-0.00352885
0.00915231
-0.00345944
0.00827885
-0.00339285
0.00724334
-0.00339772
0.0059874
-0.00354319
0.00442873
-0.00389314
0.0024666
-0.00449214
-1.38837e-05
-0.00533526
-0.00313567
-0.00631183
-0.00700552
-0.00711684
-0.0116263
-0.00716975
-0.0166382
-0.00572957
-0.0207009
-0.00262248
-0.0205518
-0.010839
-0.00093495
0.00481086
-0.00205557
0.00924523
-0.0027446
0.0107432
-0.00292808
0.0107813
-0.00271726
0.0102085
-0.00224096
0.00940587
-0.0016096
0.00852094
-0.00091769
0.00758694
-0.000252302
0.00657795
0.000299454
0.00543564
0.000646007
0.00408218
0.000689198
0.00242341
0.000330027
0.000345287
-0.000509429
-0.00229621
-0.00183799
-0.00567696
-0.00348002
-0.00998423
-0.00488268
-0.0152356
-0.00499967
-0.0205839
-0.00287014
-0.0226814
-0.0137092
-0.00141927
0.00623013
-0.00267802
0.010504
-0.00291037
0.0109756
-0.00233017
0.0102011
-0.00126217
0.00914045
6.64563e-05
0.00807725
0.00150507
0.00708233
0.0029436
0.00614841
0.00429007
0.00523148
0.00545484
0.00427087
0.00633773
0.00319929
0.0068244
0.00193675
0.00678435
0.000385327
0.00607707
-0.00158893
0.00457382
-0.00417371
0.00224656
-0.00765698
-0.00056919
-0.0124198
-0.00276291
-0.0183902
-0.00253257
-0.0229117
-0.0162417
-0.00212599
0.00835612
-0.00300018
0.0113782
-0.00191633
0.00989174
0.000100729
0.00818409
0.00244826
0.00679293
0.00485805
0.00566746
0.00719396
0.00474642
0.00937204
0.00397034
0.0113287
0.00327481
0.0129983
0.00260126
0.0142939
0.00190375
0.0151092
0.00112139
0.0153119
0.000182655
0.014738
-0.00101497
0.0131842
-0.00261998
0.0104059
-0.0048787
0.00633415
-0.00834803
0.0016872
-0.0137432
-0.00117729
-0.0200472
-0.017419
-0.0024497
0.0108058
3.63062e-05
0.00889216
0.00420214
0.00572591
0.00826302
0.00412322
0.0119308
0.00312514
0.0151939
0.00240435
0.0180613
0.00187901
0.0205465
0.00148513
0.0226526
0.00116875
0.0243635
0.00089031
0.0256513
0.000616
0.0264577
0.000314941
0.0266758
-3.54393e-05
0.0261387
-0.000477846
0.0245944
-0.00107566
0.0216954
-0.0019797
0.0169319
-0.00358451
0.00991935
-0.00673069
0.00220186
-0.0123297
-0.0152172
0.0108058
0.019698
0.0254239
0.0295471
0.0326722
0.0350766
0.0369556
0.0384407
0.0396095
0.0404998
0.0411158
0.0414307
0.0413953
0.0409174
0.0398418
0.0378621
0.0342776
0.0275469
0.0152172
)
;

boundaryField
{
    movingWall
    {
        type            calculated;
        value           uniform 0;
    }
    fixedWalls
    {
        type            calculated;
        value           uniform 0;
    }
    frontAndBack
    {
        type            empty;
    }
}


// ************************************************************************* //
