/*--------------------------------*- C++ -*----------------------------------*\
  =========                 |
  \\      /  F ield         | OpenFOAM: The Open Source CFD Toolbox
   \\    /   O peration     | Website:  https://openfoam.org
    \\  /    A nd           | Version:  13
     \\/     M anipulation  |
\*---------------------------------------------------------------------------*/
FoamFile
{
    format      ascii;
    class       volVectorField;
    location    "10";
    object      U;
}
// * * * * * * * * * * * * * * * * * * * * * * * * * * * * * * * * * * * * * //

dimensions      [0 1 -1 0 0 0 0];

internalField   nonuniform List<vector> 8((-0.0659593 0.0328702 9.49622e-14) (-0.0218964 -0.0581985 -0.0185484) (0.0785332 0.0581985 0.016345) (0.122596 -0.0328702 -0.0348934) (-0.0659593 0.0328702 -9.49622e-14) (-0.0218964 -0.0581985 0.0185484) (0.0785332 0.0581985 -0.016345) (0.122596 -0.0328702 0.0348934));

boundaryField
{
    movingWall
    {
        type            fixedValue;
        value           uniform (1 0 0);
    }
    fixedWalls
    {
        type            fixedValue;
        value           uniform (0 0 0);
    }
    frontAndBack
    {
        type            empty;
    }
}


// ************************************************************************* //
