/*--------------------------------*- C++ -*----------------------------------*\
  =========                 |
  \\      /  F ield         | OpenFOAM: The Open Source CFD Toolbox
   \\    /   O peration     | Website:  https://openfoam.org
    \\  /    A nd           | Version:  13
     \\/     M anipulation  |
\*---------------------------------------------------------------------------*/
FoamFile
{
    format      ascii;
    class       volScalarField;
    location    "26";
    object      p;
}
// * * * * * * * * * * * * * * * * * * * * * * * * * * * * * * * * * * * * * //

dimensions      [0 2 -2 0 0 0 0];

internalField   nonuniform List<scalar> 
400
(
-5.68632e-09
-0.000509219
-0.00112458
-0.00159264
-0.0017964
-0.00168862
-0.00124738
-0.000464556
0.000648511
0.00204712
0.0036392
0.00527935
0.00677898
0.007936
0.0085824
0.00863826
0.00815407
0.00732564
0.00647033
0.00593027
0.00051529
-1.14402e-05
-0.000551523
-0.000923078
-0.00107073
-0.000968808
-0.000598807
5.1307e-05
0.000979074
0.00215395
0.00350352
0.0049069
0.00620158
0.00720991
0.0077821
0.00784569
0.0074425
0.00673464
0.00597262
0.0054223
0.00115464
0.000492296
-7.85206e-05
-0.000418469
-0.000551768
-0.000485692
-0.000207834
0.00030082
0.00105288
0.00203812
0.00320645
0.0044571
0.0056415
0.00658629
0.00713599
0.00720456
0.00681434
0.00609691
0.00525121
0.00453304
0.00160838
0.000753161
7.13938e-05
-0.000309822
-0.000486221
-0.000496995
-0.000334061
3.26725e-05
0.000636546
0.00149269
0.00257489
0.00379777
0.00501317
0.0060298
0.00665787
0.00676966
0.00635039
0.00550505
0.0044164
0.00340339
0.00163374
0.000582173
-0.000236456
-0.000700461
-0.000966463
-0.00109858
-0.0010875
-0.000886387
-0.000434796
0.000314578
0.00136553
0.00265143
0.00402133
0.00525308
0.0060986
0.00635677
0.00594652
0.00493465
0.00350816
0.00210614
0.00103066
-0.000197699
-0.00115585
-0.00173009
-0.00212925
-0.00243502
-0.00263097
-0.00264753
-0.00238969
-0.00176789
-0.000735699
0.000672649
0.0023116
0.00392501
0.00518489
0.00577668
0.00550491
0.00436185
0.00253752
0.000649072
-0.000370392
-0.00174576
-0.0028383
-0.00354763
-0.00412776
-0.00467247
-0.00515416
-0.00547581
-0.00550008
-0.00508169
-0.00411093
-0.00256676
-0.000563069
0.00162074
0.00356193
0.00478434
0.00490384
0.00376302
0.00151854
-0.000967823
-0.00270307
-0.00418952
-0.00540791
-0.00627721
-0.00709135
-0.00795374
-0.00882496
-0.00957883
-0.0100293
-0.00996088
-0.00917492
-0.00755493
-0.0051421
-0.00220358
0.000747877
0.00302797
0.0039618
0.00311029
0.000498397
-0.00270038
-0.00605449
-0.0076114
-0.00894228
-0.00999141
-0.01109
-0.012353
-0.0137332
-0.015078
-0.0161503
-0.0166519
-0.0162674
-0.0147392
-0.011972
-0.00815393
-0.00384518
4.0156e-05
0.00242016
0.00237324
-0.00040703
-0.00440034
-0.0104559
-0.0120382
-0.0134566
-0.0146858
-0.0160971
-0.0178247
-0.0198232
-0.0219217
-0.0238356
-0.0251781
-0.0254956
-0.0243436
-0.0214177
-0.0167274
-0.0107841
-0.00469256
-3.20356e-05
0.00153588
-0.000964728
-0.00572992
-0.0158816
-0.0174388
-0.0188945
-0.0202584
-0.0219556
-0.0241559
-0.0268304
-0.0298023
-0.0327487
-0.0351977
-0.0365486
-0.0361393
-0.0333915
-0.0280229
-0.0203471
-0.0115266
-0.00363713
0.000663753
-0.000747732
-0.00603119
-0.022266
-0.0237363
-0.0251305
-0.0265003
-0.0283588
-0.03094
-0.0342493
-0.0381167
-0.0421918
-0.0459275
-0.0485831
-0.0492753
-0.0471057
-0.0414177
-0.0321548
-0.0203106
-0.00830073
7.58089e-05
0.00100058
-0.00412816
-0.0295498
-0.0308426
-0.0319888
-0.0331023
-0.0348554
-0.0375887
-0.0413591
-0.0460087
-0.0511638
-0.05621
-0.06028
-0.0622834
-0.0610156
-0.0553968
-0.0448704
-0.0299971
-0.013207
0.000649902
0.00560525
0.00195945
-0.0377798
-0.0387204
-0.0392726
-0.0396729
-0.0408791
-0.0433908
-0.0473201
-0.0525094
-0.0585478
-0.0647485
-0.0701247
-0.0734016
-0.0731
-0.0677394
-0.0562192
-0.0384646
-0.0165015
0.00417426
0.0153017
0.0153789
-0.0473106
-0.047486
-0.0467982
-0.0457611
-0.0458021
-0.0476118
-0.0513262
-0.0567438
-0.063378
-0.0704404
-0.0768128
-0.0810433
-0.0814077
-0.0760783
-0.0634573
-0.0427763
-0.0152993
0.0135144
0.033486
0.0406682
-0.0591509
-0.0575786
-0.0544412
-0.0508943
-0.0490211
-0.0496328
-0.0527832
-0.0581435
-0.0650822
-0.0726602
-0.0795922
-0.0842309
-0.0846097
-0.0785842
-0.0641298
-0.0398556
-0.00610426
0.0324509
0.0645788
0.0833066
-0.0755511
-0.0700756
-0.0621741
-0.0546155
-0.0500518
-0.0490722
-0.0514349
-0.0565551
-0.0635753
-0.0713445
-0.0783679
-0.0827718
-0.0823221
-0.0745318
-0.0569348
-0.0275399
0.0142646
0.0652416
0.11417
0.149936
-0.103635
-0.0874889
-0.0697107
-0.0561347
-0.0482562
-0.0455408
-0.0471275
-0.0520215
-0.0590475
-0.0668055
-0.0735819
-0.07727
-0.0753595
-0.0649664
-0.0430323
-0.00666471
0.0461591
0.114802
0.191053
0.257849
-0.175551
-0.114538
-0.0734895
-0.0519009
-0.041211
-0.0374837
-0.0389712
-0.0441736
-0.0515434
-0.0594696
-0.0661129
-0.0692123
-0.0660633
-0.0534405
-0.0275816
0.0158899
0.0820259
0.176637
0.304651
0.45216
-0.355426
-0.154913
-0.0702715
-0.0427723
-0.0313694
-0.0275172
-0.0295037
-0.0354678
-0.043523
-0.0519166
-0.0587706
-0.0618316
-0.0583574
-0.0449903
-0.0173718
0.0304288
0.107882
0.232766
0.434223
0.735341
)
;

boundaryField
{
    movingWall
    {
        type            zeroGradient;
    }
    fixedWalls
    {
        type            zeroGradient;
    }
    frontAndBack
    {
        type            empty;
    }
}


// ************************************************************************* //
