/*--------------------------------*- C++ -*----------------------------------*\
  =========                 |
  \\      /  F ield         | OpenFOAM: The Open Source CFD Toolbox
   \\    /   O peration     | Website:  https://openfoam.org
    \\  /    A nd           | Version:  13
     \\/     M anipulation  |
\*---------------------------------------------------------------------------*/
FoamFile
{
    format      ascii;
    class       volScalarField;
    location    "26";
    object      p;
}
// * * * * * * * * * * * * * * * * * * * * * * * * * * * * * * * * * * * * * //

dimensions      [0 2 -2 0 0 0 0];

internalField   nonuniform List<scalar> 
400
(
7.73647e-07
-0.00057166
-0.00121524
-0.00171808
-0.0019584
-0.00188388
-0.00146967
-0.000704709
0.000402126
0.00180678
0.00341551
0.00507582
0.00659185
0.00775191
0.00838062
0.00839646
0.00785619
0.00696977
0.0060489
0.00549523
0.000570695
-1.95603e-05
-0.000568941
-0.000956282
-0.00113123
-0.00106118
-0.000725177
-0.000108438
0.000789588
0.00194028
0.00327061
0.00466094
0.00594152
0.00693063
0.00747508
0.00750264
0.00706008
0.00631972
0.00554415
0.00497353
0.00124643
0.000493729
-8.59794e-05
-0.000440624
-0.000605389
-0.000575506
-0.000336479
0.000133398
0.000850512
0.00180772
0.00295568
0.00419263
0.00536527
0.00629466
0.00682011
0.00685377
0.00642163
0.00566908
0.00480984
0.00403809
0.0017413
0.000764439
7.4413e-05
-0.000321195
-0.000536366
-0.000591956
-0.000477428
-0.000159336
0.000400866
0.00122294
0.00228255
0.00349373
0.00470258
0.0057106
0.00632028
0.00639905
0.00593442
0.00505148
0.00394933
0.00284537
0.00179618
0.000596466
-0.000226938
-0.000704059
-0.00101737
-0.00120644
-0.00125854
-0.00112215
-0.000729619
-2.69291e-05
0.000992665
0.00226452
0.00363099
0.00486217
0.0056996
0.00593325
0.00548134
0.00443644
0.0030009
0.00146307
0.00119543
-0.000202279
-0.00116251
-0.00175191
-0.0022106
-0.00258983
-0.00286839
-0.00297029
-0.00279098
-0.00223195
-0.00124308
0.000151515
0.00179384
0.00342082
0.00469119
0.0052757
0.00497288
0.00380666
0.00198001
-0.000103032
-0.000240857
-0.00179932
-0.00289145
-0.00362138
-0.00427684
-0.00491574
-0.00550413
-0.00593655
-0.00606353
-0.00572738
-0.00480583
-0.00328409
-0.00126927
0.000947748
0.00292732
0.00417088
0.00428027
0.00313657
0.000903647
-0.0018552
-0.00265113
-0.00432552
-0.00554041
-0.0064384
-0.00734619
-0.00832676
-0.00933286
-0.0102277
-0.0108101
-0.0108493
-0.0101323
-0.0085378
-0.00610588
-0.00311111
-8.53144e-05
0.00225612
0.00321371
0.00239634
-0.000176299
-0.00375186
-0.00612048
-0.00786081
-0.00918383
-0.0102708
-0.011482
-0.0128883
-0.0144333
-0.0159517
-0.0171884
-0.0178263
-0.017534
-0.0160414
-0.0132518
-0.00935625
-0.00493483
-0.00094026
0.00150919
0.00155567
-0.00113606
-0.00564568
-0.0106706
-0.0124227
-0.0138265
-0.015101
-0.0166411
-0.0185347
-0.0207259
-0.0230292
-0.0251391
-0.0266477
-0.0270827
-0.0259761
-0.0230328
-0.0182527
-0.0121665
-0.00592091
-0.00114112
0.000604147
-0.00173028
-0.00719402
-0.0162595
-0.0179643
-0.0193947
-0.0208051
-0.0226404
-0.0250222
-0.02791
-0.0311101
-0.034276
-0.0369124
-0.0383938
-0.0380051
-0.0352826
-0.0298321
-0.0220038
-0.0130051
-0.0049586
-0.000374417
-0.00151491
-0.00771955
-0.0228019
-0.0243889
-0.0257416
-0.0271473
-0.0291423
-0.0319094
-0.0354411
-0.0395479
-0.0438534
-0.0477831
-0.0505784
-0.0513756
-0.0491619
-0.0433925
-0.0339875
-0.0219764
-0.00980469
-0.00102361
0.000281161
-0.00599889
-0.0302214
-0.0315851
-0.0326684
-0.0337909
-0.0356669
-0.0385786
-0.0425676
-0.0474536
-0.0528328
-0.0580611
-0.0622495
-0.064309
-0.0630208
-0.0573306
-0.0466915
-0.0317037
-0.0147999
-0.000415931
0.00496669
2.38704e-05
-0.0385588
-0.0394883
-0.0399601
-0.0403258
-0.0416338
-0.0443083
-0.0484442
-0.0538579
-0.0601044
-0.0664639
-0.0719279
-0.07522
-0.0748689
-0.06942
-0.0578057
-0.0400009
-0.0180221
0.00328063
0.0146996
0.0135567
-0.0481736
-0.0481558
-0.0474023
-0.046283
-0.0464109
-0.04837
-0.0522802
-0.0579118
-0.064738
-0.0719339
-0.0783592
-0.0825599
-0.0828309
-0.0773726
-0.0646441
-0.0439359
-0.0165424
0.0130198
0.032932
0.0392817
-0.0602338
-0.0579566
-0.0548661
-0.0512124
-0.0494261
-0.0501773
-0.0535191
-0.0590924
-0.0662187
-0.0739174
-0.0808781
-0.0854521
-0.0857057
-0.0795188
-0.0649409
-0.0406103
-0.006978
0.0328177
0.0647946
0.0836776
-0.0774803
-0.0694722
-0.0620864
-0.0545485
-0.050138
-0.049324
-0.0519033
-0.0572598
-0.0644849
-0.0723837
-0.0794387
-0.0837772
-0.0832173
-0.075282
-0.0576205
-0.0282105
0.0133532
0.0666617
0.115753
0.154808
-0.108925
-0.0850391
-0.0697725
-0.0563907
-0.0485402
-0.0458802
-0.0476232
-0.0527139
-0.059916
-0.0677758
-0.0745511
-0.0781389
-0.0761033
-0.0655417
-0.0436425
-0.00744439
0.0447437
0.114933
0.188079
0.263281
-0.168692
-0.100745
-0.0730923
-0.0522874
-0.0413094
-0.0376989
-0.0394411
-0.0448644
-0.0524146
-0.0604458
-0.0670728
-0.0700468
-0.0666865
-0.0537875
-0.0278891
0.0154106
0.0800722
0.172761
0.285855
0.445986
-0.402753
-0.13903
-0.0734584
-0.0447294
-0.030571
-0.0266167
-0.0290847
-0.0353725
-0.043653
-0.0522062
-0.0591229
-0.0621445
-0.0586165
-0.0452131
-0.0174501
0.0310794
0.108496
0.236657
0.427488
0.79368
)
;

boundaryField
{
    movingWall
    {
        type            zeroGradient;
    }
    fixedWalls
    {
        type            zeroGradient;
    }
    frontAndBack
    {
        type            empty;
    }
}


// ************************************************************************* //
