# Selection   : all
# Cells       : 8
# Volume      : 1.000000e+00
# Time        	minMag(U)
0             	0.000000e+00
1             	8.544914e-03
2             	2.182056e-02
3             	3.535894e-02
4             	4.566362e-02
5             	5.206821e-02
6             	5.643500e-02
7             	5.966447e-02
8             	6.202311e-02
9             	6.371404e-02
10            	6.488878e-02
