/*--------------------------------*- C++ -*----------------------------------*\
  =========                 |
  \\      /  F ield         | OpenFOAM: The Open Source CFD Toolbox
   \\    /   O peration     | Website:  https://openfoam.org
    \\  /    A nd           | Version:  13
     \\/     M anipulation  |
\*---------------------------------------------------------------------------*/
FoamFile
{
    format      ascii;
    class       volScalarField;
    location    "16";
    object      p;
}
// * * * * * * * * * * * * * * * * * * * * * * * * * * * * * * * * * * * * * //

dimensions      [0 2 -2 0 0 0 0];

internalField   nonuniform List<scalar> 
400
(
3.28069e-07
-0.000571221
-0.00121341
-0.00171477
-0.00195365
-0.00187786
-0.00146265
-0.000697058
0.000409981
0.00181443
0.00342265
0.00508237
0.00659797
0.00775805
0.0083874
0.00840452
0.00786592
0.00698125
0.00606152
0.00550836
0.000569409
-1.99229e-05
-0.000568076
-0.000954115
-0.00112774
-0.00105638
-0.000719191
-0.000101508
0.00079712
0.00194804
0.0032783
0.00466841
0.00594881
0.00693808
0.00748315
0.00751184
0.00707072
0.0063318
0.00555725
0.00498713
0.00124378
0.000492306
-8.61239e-05
-0.000439489
-0.000602874
-0.000571521
-0.00033102
0.00014019
0.000858341
0.00181619
0.00296442
0.00420135
0.00537393
0.00630347
0.00682946
0.00686414
0.00643333
0.00568214
0.00482398
0.00405287
0.00173739
0.000762105
7.35144e-05
-0.000320693
-0.000534256
-0.000588029
-0.000471581
-0.000151655
0.000410074
0.00123319
0.00229331
0.00350456
0.00471326
0.00572124
0.00633124
0.00641082
0.00594742
0.00506588
0.00396499
0.00286198
0.00179161
0.000593797
-0.000227977
-0.000703475
-0.0010148
-0.00120151
-0.00125105
-0.00111216
-0.000717499
-1.33015e-05
0.00100702
0.00227895
0.00364503
0.00487576
0.00571303
0.00594706
0.0054961
0.00445256
0.00301849
0.00148196
0.00119128
-0.000204308
-0.00116271
-0.00175016
-0.00220634
-0.0025825
-0.00285766
-0.00295622
-0.00277403
-0.00221296
-0.00122321
0.00017155
0.00181314
0.00343901
0.00470842
0.00529251
0.00499006
0.00382497
0.00199991
-8.14681e-05
-0.000243142
-0.00179943
-0.00288955
-0.00361715
-0.00426943
-0.00490437
-0.00548836
-0.00591642
-0.00603962
-0.00570072
-0.00477761
-0.00325599
-0.0012424
0.000972639
0.00295008
0.00419201
0.00430076
0.00315758
0.000926186
-0.00183069
-0.00264996
-0.00432233
-0.00553508
-0.00643028
-0.00733415
-0.00830979
-0.00931037
-0.0101997
-0.0107773
-0.0108129
-0.0100941
-0.00849945
-0.0060692
-0.00307735
-5.50892e-05
0.00228309
0.00323854
0.00242063
-0.000150872
-0.0037243
-0.00611441
-0.00785303
-0.00917387
-0.0102577
-0.0114642
-0.0128645
-0.0144029
-0.0159147
-0.0171454
-0.017779
-0.0174843
-0.0159915
-0.0132038
-0.00931204
-0.00489557
-0.000906061
0.00153935
0.00158374
-0.00110769
-0.00561526
-0.0106585
-0.0124094
-0.0138111
-0.0150821
-0.0166169
-0.0185037
-0.0206874
-0.022983
-0.0250861
-0.0265898
-0.0270221
-0.0259148
-0.0229738
-0.018198
-0.0121178
-0.00587891
-0.00110511
0.000636189
-0.00169923
-0.00716139
-0.0162409
-0.0179452
-0.0193737
-0.0207805
-0.0226102
-0.0249847
-0.0278643
-0.031056
-0.0342146
-0.0368455
-0.0383237
-0.0379309
-0.0352142
-0.029769
-0.0219475
-0.0129565
-0.00491737
-0.000338915
-0.00148199
-0.00768599
-0.022777
-0.0243643
-0.0257157
-0.027118
-0.0291075
-0.0318671
-0.0353903
-0.0394887
-0.0437868
-0.0477113
-0.0505043
-0.0513057
-0.0490914
-0.0433268
-0.0339284
-0.0219248
-0.00976084
-0.000986398
0.000314385
-0.0059664
-0.0301913
-0.031556
-0.0326389
-0.0337586
-0.0356296
-0.0385343
-0.0425149
-0.0473926
-0.0527649
-0.0579885
-0.0621751
-0.0642366
-0.0629524
-0.0572682
-0.0466358
-0.031655
-0.014758
-0.000380324
0.00499772
5.26286e-05
-0.0385251
-0.0394565
-0.0399289
-0.0402931
-0.041597
-0.0442651
-0.0483931
-0.053799
-0.0600391
-0.0663949
-0.0718587
-0.075154
-0.0748087
-0.069367
-0.05776
-0.0399615
-0.0179881
0.00331004
0.0147251
0.0135788
-0.0481386
-0.0481236
-0.047372
-0.0462527
-0.0463777
-0.0483312
-0.0522339
-0.0578578
-0.064678
-0.0718711
-0.0782973
-0.0825028
-0.0827814
-0.0773321
-0.0646121
-0.0439105
-0.0165213
0.0130384
0.0329483
0.0392946
-0.0602004
-0.0579266
-0.0548395
-0.0511874
-0.0493995
-0.0501455
-0.0534799
-0.0590453
-0.0661655
-0.0738615
-0.0808239
-0.0854039
-0.0856667
-0.0794905
-0.0649229
-0.0406
-0.00697191
0.0328225
0.064799
0.0836801
-0.0774516
-0.0694475
-0.0620665
-0.0545317
-0.0501204
-0.0493011
-0.0518724
-0.0572203
-0.0644388
-0.0723346
-0.0793913
-0.0837362
-0.0831864
-0.0752631
-0.0576133
-0.0282124
0.0133458
0.0666542
0.115746
0.1548
-0.108903
-0.085022
-0.0697613
-0.0563835
-0.048532
-0.0458662
-0.0476003
-0.0526815
-0.0598762
-0.0677324
-0.0745091
-0.078103
-0.0760774
-0.0655281
-0.0436411
-0.00745303
0.0447289
0.114917
0.188063
0.263266
-0.168678
-0.100734
-0.0730882
-0.0522873
-0.0413083
-0.0376915
-0.0394243
-0.0448377
-0.05238
-0.0604069
-0.0670345
-0.0700139
-0.0666634
-0.0537754
-0.0278887
0.0154009
0.0800558
0.172741
0.285836
0.445968
-0.402739
-0.139021
-0.0734561
-0.0447319
-0.0305729
-0.0266128
-0.0290716
-0.0353495
-0.0436217
-0.0521701
-0.0590863
-0.0621121
-0.0585918
-0.0451995
-0.0174477
0.0310721
0.108482
0.23664
0.42747
0.793663
)
;

boundaryField
{
    movingWall
    {
        type            zeroGradient;
    }
    fixedWalls
    {
        type            zeroGradient;
    }
    frontAndBack
    {
        type            empty;
    }
}


// ************************************************************************* //
