/*--------------------------------*- C++ -*----------------------------------*\
  =========                 |
  \\      /  F ield         | OpenFOAM: The Open Source CFD Toolbox
   \\    /   O peration     | Website:  https://openfoam.org
    \\  /    A nd           | Version:  13
     \\/     M anipulation  |
\*---------------------------------------------------------------------------*/
FoamFile
{
    format      ascii;
    class       surfaceScalarField;
    location    "16";
    object      phi;
}
// * * * * * * * * * * * * * * * * * * * * * * * * * * * * * * * * * * * * * //

dimensions      [0 3 -1 0 0 0 0];

internalField   nonuniform List<scalar> 
760
(
1.73481e-06
-1.73544e-06
-3.85058e-05
4.0241e-05
-0.000121352
8.28462e-05
-0.000232736
0.000111385
-0.000358557
0.000125822
-0.000486946
0.000128389
-0.000607589
0.000120643
-0.00071064
0.000103051
-0.000786192
7.5552e-05
-0.000824683
3.84897e-05
-0.000818258
-6.42564e-06
-0.000762869
-5.53889e-05
-0.000660523
-0.000102346
-0.000520959
-0.000139564
-0.00036184
-0.000159118
-0.000206736
-0.000155104
-8.0705e-05
-0.000126031
-3.95487e-06
-7.675e-05
1.6413e-05
-2.03676e-05
1.6413e-05
-4.27602e-05
4.10247e-05
-0.000185185
0.000182667
-0.000416089
0.000313752
-0.000706509
0.000401806
-0.00102633
0.000445643
-0.00134805
0.000450113
-0.00164643
0.00041902
-0.00189725
0.00035387
-0.00207703
0.000255325
-0.00216431
0.000125777
-0.00214273
-2.80066e-05
-0.00200506
-0.000193059
-0.00175754
-0.000349863
-0.0014228
-0.000474306
-0.00103987
-0.000542047
-0.00065991
-0.000535066
-0.000336996
-0.000448944
-0.000114901
-0.000298845
-1.19391e-05
-0.00012333
4.4739e-06
-9.68527e-05
0.000137878
-0.00035099
0.000436805
-0.000722362
0.000685125
-0.00116856
0.000848008
-0.00164886
0.000925937
-0.00212569
0.000926948
-0.00256392
0.000857251
-0.00292974
0.000719686
-0.00319077
0.00051635
-0.00331801
0.000253017
-0.00328962
-5.63964e-05
-0.0030959
-0.000386774
-0.00274452
-0.000701242
-0.00226439
-0.000954433
-0.0017064
-0.00110004
-0.00113886
-0.0011026
-0.000636549
-0.000951256
-0.000263712
-0.000671682
-5.51592e-05
-0.000331884
-5.06853e-05
-0.000147511
0.000285389
-0.000508493
0.000797788
-0.0010122
0.00118883
-0.00160056
0.00143637
-0.00222353
0.0015489
-0.00283664
0.00154006
-0.00339856
0.00141917
-0.00386936
0.00119049
-0.00421056
0.000857542
-0.00438703
0.000429488
-0.00437104
-7.23816e-05
-0.00414773
-0.000610085
-0.00372135
-0.00112763
-0.00312098
-0.0015548
-0.00240359
-0.00181744
-0.00165147
-0.00185472
-0.000961222
-0.00164151
-0.000423622
-0.00120928
-9.94373e-05
-0.000656069
-0.000150122
-0.000192947
0.000478336
-0.000651821
0.00125666
-0.00127756
0.00181457
-0.00199666
0.00215547
-0.00275078
0.00230302
-0.00349073
0.00228001
-0.00417169
0.00210012
-0.00475017
0.00176898
-0.00518322
0.00129059
-0.00542981
0.00067608
-0.0054545
-4.76995e-05
-0.00523317
-0.000831416
-0.0047607
-0.00160009
-0.00405957
-0.00225594
-0.00318719
-0.00268981
-0.00223804
-0.00280387
-0.00133482
-0.00254473
-0.000605083
-0.00193901
-0.0001474
-0.00111375
-0.000297522
-0.00023287
0.000711206
-0.000778711
0.0018025
-0.00151398
0.00254983
-0.00235153
0.00299302
-0.00322639
0.00317788
-0.00408662
0.00314025
-0.00488625
0.00289975
-0.0055804
0.00246313
-0.0061231
0.00183329
-0.00646743
0.00102041
-0.00656831
5.31797e-05
-0.00638819
-0.00101154
-0.00590603
-0.00208226
-0.00512953
-0.00303243
-0.00410882
-0.00371053
-0.00294638
-0.0039663
-0.00179448
-0.00369662
-0.000830044
-0.00290345
-0.000206465
-0.00173733
-0.000503987
-0.00026674
0.000977946
-0.000886562
0.00242232
-0.00171588
0.00337915
-0.00265641
0.00393356
-0.0036385
0.00415997
-0.00460963
0.00411138
-0.00552497
0.00381509
-0.0063406
0.00327876
-0.00700937
0.00250207
-0.0074794
0.00149044
-0.00769527
0.000269046
-0.00760289
-0.00110391
-0.00715924
-0.00252591
-0.00634798
-0.00384369
-0.00520054
-0.00485796
-0.00381767
-0.00534917
-0.00237948
-0.00513481
-0.00112469
-0.00415824
-0.000285874
-0.00257614
-0.000789862
-0.000293618
0.00127156
-0.000971813
0.00310052
-0.00187562
0.00428296
-0.00289816
0.0049561
-0.0039671
0.00522891
-0.00503145
0.00517573
-0.00605
0.00483364
-0.00698252
0.00421128
-0.0077836
0.00330315
-0.00839897
0.0021058
-0.00876454
0.000634613
-0.00880936
-0.00105909
-0.00846453
-0.00287074
-0.00768064
-0.00462758
-0.00645563
-0.00608297
-0.0048707
-0.0069341
-0.00312166
-0.00688385
-0.00151573
-0.00576417
-0.0003961
-0.00369578
-0.00118596
-0.000312605
0.00158417
-0.00103091
0.00381882
-0.00198491
0.00523696
-0.00306111
0.0060323
-0.00418627
0.00635407
-0.0053129
0.00630235
-0.00640595
0.00592668
-0.00743215
0.00523749
-0.00835191
0.0042229
-0.00911331
0.0028672
-0.00964853
0.00116983
-0.00987362
-0.000833993
-0.00969442
-0.00304994
-0.00902244
-0.00529956
-0.00780636
-0.00729905
-0.00608199
-0.00865848
-0.004033
-0.00893284
-0.00202642
-0.00777075
-0.000548791
-0.00517341
-0.00173475
-0.000323746
0.00190792
-0.00106247
0.00455755
-0.002038
0.00621248
-0.0031313
0.0071256
-0.00426951
0.00749228
-0.00541049
0.00744333
-0.00652795
0.00704415
-0.0075992
0.00630873
-0.00859545
0.00521914
-0.0094739
0.00374566
-0.0101713
0.00186727
-0.0105997
-0.00040566
-0.0106466
-0.00300297
-0.0101855
-0.0057607
-0.00910394
-0.00838061
-0.00736253
-0.0103999
-0.00508755
-0.0112078
-0.00266925
-0.0101891
-0.000756454
-0.0070862
-0.00249121
-0.000329406
0.00223732
-0.00107053
0.00529867
-0.00203654
0.0071785
-0.00310265
0.00819171
-0.00419759
0.00858723
-0.00528665
0.00853239
-0.00635494
0.00811244
-0.007394
0.00734779
-0.00839117
0.00621632
-0.00932052
0.00467501
-0.0101341
0.00268082
-0.0107531
0.000213326
-0.0110615
-0.00269452
-0.0109054
-0.00591684
-0.0101105
-0.00917546
-0.00853755
-0.0119728
-0.00619835
-0.013547
-0.00343288
-0.0129545
-0.00103091
-0.00948817
-0.00352213
-0.000336286
0.00257361
-0.00106883
0.00603122
-0.00199542
0.00810508
-0.00298411
0.0091804
-0.00396751
0.00957063
-0.00492146
0.00948634
-0.00584561
0.00903659
-0.00674916
0.00825133
-0.0076402
0.00710736
-0.00851666
0.00555147
-0.00935644
0.0035206
-0.0101058
0.000962696
-0.0106648
-0.00213554
-0.0108747
-0.0057069
-0.0105157
-0.0095345
-0.00934132
-0.0131472
-0.00719588
-0.0156925
-0.00426235
-0.0158881
-0.00137911
-0.0123714
-0.00490124
-0.000358406
0.00293202
-0.00108611
0.00675893
-0.00194851
0.00896748
-0.00280542
0.0100373
-0.00359887
0.0103641
-0.00432121
0.0102087
-0.004991
0.00970638
-0.00563808
0.00889842
-0.00629426
0.00776354
-0.00698556
0.00624277
-0.00772342
0.00425846
-0.00849214
0.00173141
-0.00922996
-0.00139772
-0.0098041
-0.00513276
-0.00998433
-0.00935427
-0.00943974
-0.0136918
-0.00782062
-0.0173116
-0.00503632
-0.0186724
-0.00179432
-0.0156134
-0.00669556
-0.000421811
0.00335383
-0.00117203
0.00750914
-0.0019521
0.00974754
-0.00261689
0.0107021
-0.00313118
0.0108784
-0.00351492
0.0105924
-0.0038119
0.0100034
-0.00407538
0.0091619
-0.00436139
0.00804955
-0.0047242
0.00660558
-0.00521059
0.00474485
-0.00584961
0.00237044
-0.00663417
-0.000613153
-0.0074894
-0.00427753
-0.00822478
-0.00861888
-0.00848198
-0.0134346
-0.00774062
-0.0180529
-0.00555016
-0.0208628
-0.00224064
-0.0189229
-0.0089362
-0.000571271
0.0039251
-0.00140101
0.00833888
-0.00207806
0.0104246
-0.00247111
0.0110951
-0.00259637
0.0110036
-0.00252011
0.0105162
-0.0023201
0.00980335
-0.00207512
0.00891691
-0.00186354
0.00783797
-0.00176369
0.00650574
-0.00185293
0.00483409
-0.00220263
0.00272013
-0.00286532
4.95363e-05
-0.00384594
-0.00329692
-0.0050448
-0.00742002
-0.00616064
-0.0123188
-0.00658908
-0.0176245
-0.00551004
-0.0219419
-0.00262741
-0.0218055
-0.0115636
-0.000872192
0.00479729
-0.00185873
0.00932541
-0.00236857
0.0109344
-0.00234797
0.0110745
-0.00192254
0.0105782
-0.00123246
0.00982608
-0.000398514
0.0089694
0.00047522
0.00804318
0.00129332
0.00701986
0.0019615
0.00583756
0.00238185
0.00441374
0.00245159
0.0026504
0.00206742
0.000433698
0.00114271
-0.0023722
-0.000345126
-0.00593219
-0.00223992
-0.010424
-0.00399855
-0.0158659
-0.00453403
-0.0214064
-0.00276834
-0.0235712
-0.014332
-0.00138776
0.00618505
-0.00255177
0.0104894
-0.0026461
0.0110288
-0.00189847
0.0103269
-0.000647959
0.00932769
0.000866657
0.00831146
0.00248474
0.00735132
0.00408808
0.00643984
0.00557776
0.00553018
0.00685788
0.00455744
0.00782482
0.0034468
0.00836118
0.00211404
0.00833217
0.000462711
0.0075893
-0.00162933
0.00599224
-0.00433512
0.00349723
-0.00792896
0.000413653
-0.0127823
-0.00215739
-0.0188354
-0.00235107
-0.0233775
-0.016683
-0.00213942
0.00832448
-0.00297315
0.0113231
-0.00181916
0.00987478
0.000299349
0.00820841
0.00276853
0.00685851
0.00531043
0.00576956
0.00778196
0.00487979
0.0100937
0.00412809
0.0121763
0.00344763
0.0139571
0.00277662
0.0153479
0.00205602
0.0162382
0.00122366
0.016487
0.000213961
0.0159174
-0.00105977
0.01431
-0.0027277
0.0114249
-0.00504388
0.00717137
-0.00852874
0.00224842
-0.0139124
-0.000970998
-0.0201581
-0.017654
-0.00246758
0.0107921
7.51734e-06
0.00884805
0.00417127
0.00571103
0.00826602
0.00411366
0.0119876
0.00313697
0.0153164
0.00244077
0.0182621
0.00193402
0.0208388
0.00155137
0.0230488
0.00123766
0.0248743
0.000951092
0.0262723
0.000658062
0.0271644
0.000331563
0.0274303
-5.19785e-05
0.0269033
-0.000532743
0.0253361
-0.00116049
0.0223665
-0.00207432
0.0174864
-0.00364864
0.0103098
-0.00673572
0.00241789
-0.0122663
-0.0152361
0.0107921
0.0196401
0.0253511
0.0294648
0.0326018
0.0350425
0.0369766
0.0385279
0.0397656
0.0407167
0.0413747
0.0417063
0.0416543
0.0411216
0.0399611
0.0378868
0.0342381
0.0275024
0.0152361
)
;

boundaryField
{
    movingWall
    {
        type            calculated;
        value           uniform 0;
    }
    fixedWalls
    {
        type            calculated;
        value           uniform 0;
    }
    frontAndBack
    {
        type            empty;
    }
}


// ************************************************************************* //
