/*--------------------------------*- C++ -*----------------------------------*\
  =========                 |
  \\      /  F ield         | OpenFOAM: The Open Source CFD Toolbox
   \\    /   O peration     | Website:  https://openfoam.org
    \\  /    A nd           | Version:  13
     \\/     M anipulation  |
\*---------------------------------------------------------------------------*/
FoamFile
{
    format      ascii;
    class       volVectorField;
    location    "16";
    object      U;
}
// * * * * * * * * * * * * * * * * * * * * * * * * * * * * * * * * * * * * * //

dimensions      [0 1 -1 0 0 0 0];

internalField   nonuniform List<vector> 
400
(
(0.000134986 -0.000137591 0)
(-0.000193833 6.31077e-05 0)
(-0.00145596 0.000273809 0)
(-0.00345298 0.000408845 0)
(-0.00588126 0.000478167 0)
(-0.00847324 0.000499581 0)
(-0.0110088 0.000482507 0)
(-0.0132889 0.000427883 0)
(-0.0151156 0.00033205 0)
(-0.0162906 0.000192242 0)
(-0.0166332 1.22202e-05 0)
(-0.0160166 -0.000193379 0)
(-0.0144134 -0.000396996 0)
(-0.0119381 -0.000560748 0)
(-0.00886843 -0.000644023 0)
(-0.00562846 -0.000615358 0)
(-0.00272549 -0.000464864 0)
(-0.000639244 -0.000213035 0)
(0.00033621 7.46564e-05 0)
(0.000247602 0.000242244 0)
(-7.30882e-05 0.000190728 0)
(-0.0018538 0.00175435 0)
(-0.0056707 0.00333911 0)
(-0.0110253 0.00442172 0)
(-0.0172687 0.00497587 0)
(-0.0238119 0.00507033 0)
(-0.0301309 0.00475812 0)
(-0.0357342 0.00405711 0)
(-0.040142 0.00296879 0)
(-0.0428955 0.00151214 0)
(-0.0436014 -0.000241218 0)
(-0.0420071 -0.00214182 0)
(-0.0380889 -0.00395676 0)
(-0.0321297 -0.00539291 0)
(-0.0247538 -0.00615258 0)
(-0.0168883 -0.00601582 0)
(-0.0096304 -0.00493058 0)
(-0.00402149 -0.00308717 0)
(-0.000747777 -0.000982725 0)
(0.000147864 0.00038237 0)
(-0.000334115 0.00157911 0)
(-0.00387357 0.00570375 0)
(-0.0102585 0.00934603 0)
(-0.018645 0.01179 0)
(-0.0281125 0.0129974 0)
(-0.0378671 0.0130854 0)
(-0.0471887 0.0121508 0)
(-0.0553902 0.0102357 0)
(-0.0618042 0.0073661 0)
(-0.0658034 0.00362016 0)
(-0.0668601 -0.000801631 0)
(-0.0646379 -0.00552839 0)
(-0.0590984 -0.0100125 0)
(-0.0505983 -0.0135813 0)
(-0.0399417 -0.0155575 0)
(-0.0283494 -0.0154369 0)
(-0.0173089 -0.0130918 0)
(-0.00829681 -0.00893912 0)
(-0.00242043 -0.00403624 0)
(-2.8163e-05 -0.000271188 0)
(-0.000567494 0.00403522 0)
(-0.00579504 0.0118861 0)
(-0.0146318 0.0181444 0)
(-0.0258292 0.022198 0)
(-0.0381929 0.0240999 0)
(-0.0507751 0.0240499 0)
(-0.0627309 0.0221977 0)
(-0.0732523 0.0186143 0)
(-0.0815491 0.0133582 0)
(-0.0868706 0.0065826 0)
(-0.0885676 -0.00135765 0)
(-0.0861903 -0.00983118 0)
(-0.0796091 -0.0179168 0)
(-0.0691396 -0.0244776 0)
(-0.055638 -0.0283432 0)
(-0.0405182 -0.028598 0)
(-0.0256301 -0.0249317 0)
(-0.0129588 -0.0179468 0)
(-0.00419539 -0.00929938 0)
(-0.000180402 -0.0017976 0)
(-0.000768757 0.00745887 0)
(-0.0075303 0.0201248 0)
(-0.0186292 0.0294914 0)
(-0.0324175 0.0353287 0)
(-0.0474393 0.0379215 0)
(-0.0626264 0.0376146 0)
(-0.0770619 0.0346313 0)
(-0.0898723 0.0290723 0)
(-0.10019 0.0210197 0)
(-0.107162 0.0106874 0)
(-0.110004 -0.00143015 0)
(-0.108092 -0.0144484 0)
(-0.101104 -0.0270558 0)
(-0.0891797 -0.0375874 0)
(-0.0730928 -0.0442503 0)
(-0.0543642 -0.0455261 0)
(-0.0352235 -0.0407118 0)
(-0.0183177 -0.030452 0)
(-0.00616907 -0.0170007 0)
(-0.000322104 -0.00422725 0)
(-0.000939858 0.0117372 0)
(-0.00905637 0.030214 0)
(-0.0221775 0.0431556 0)
(-0.0383027 0.0509484 0)
(-0.0557466 0.0542528 0)
(-0.0733578 0.0536355 0)
(-0.0901921 0.0494221 0)
(-0.105359 0.0417394 0)
(-0.117951 0.0306673 0)
(-0.127033 0.0164364 0)
(-0.131664 -0.000374919 0)
(-0.13099 -0.0186817 0)
(-0.124383 -0.036805 0)
(-0.111657 -0.0525071 0)
(-0.0933353 -0.0632218 0)
(-0.0709085 -0.0665542 0)
(-0.0469628 -0.0610621 0)
(-0.0249701 -0.047148 0)
(-0.00862173 -0.0276214 0)
(-0.000492232 -0.00769445 0)
(-0.00107902 0.0167555 0)
(-0.0103476 0.0419184 0)
(-0.0251966 0.0588654 0)
(-0.0433403 0.0687947 0)
(-0.0629072 0.0728772 0)
(-0.0827027 0.0719822 0)
(-0.101801 0.0665707 0)
(-0.119343 0.0567898 0)
(-0.134428 0.0426777 0)
(-0.146062 0.024413 0)
(-0.153159 0.00256532 0)
(-0.154594 -0.0216795 0)
(-0.149347 -0.0463499 0)
(-0.136751 -0.0686349 0)
(-0.116864 -0.085053 0)
(-0.0909163 -0.0919972 0)
(-0.0617026 -0.0867761 0)
(-0.0336082 -0.0690411 0)
(-0.0119112 -0.0419751 0)
(-0.000738038 -0.0125073 0)
(-0.00118175 0.0223846 0)
(-0.0113662 0.0549565 0)
(-0.0275814 0.0762783 0)
(-0.047329 0.0885162 0)
(-0.0685954 0.0934761 0)
(-0.0901839 0.0924115 0)
(-0.111233 0.0859566 0)
(-0.130968 0.0742748 0)
(-0.148549 0.0573191 0)
(-0.162988 0.0351325 0)
(-0.173092 0.00815595 0)
(-0.177485 -0.0224688 0)
(-0.174718 -0.0546188 0)
(-0.16352 -0.0849911 0)
(-0.143248 -0.109119 0)
(-0.114529 -0.121849 0)
(-0.0800152 -0.118575 0)
(-0.0448924 -0.0973542 0)
(-0.0164433 -0.0612235 0)
(-0.00111796 -0.0191748 0)
(-0.00124452 0.0284747 0)
(-0.012077 0.0689907 0)
(-0.0292247 0.0949603 0)
(-0.0500417 0.10963 0)
(-0.0724085 0.115557 0)
(-0.0951634 0.114463 0)
(-0.117554 0.107201 0)
(-0.138947 0.0939582 0)
(-0.15864 0.0745663 0)
(-0.175734 0.048852 0)
(-0.189033 0.0169971 0)
(-0.197003 -0.0200801 0)
(-0.197819 -0.0603191 0)
(-0.189568 -0.100127 0)
(-0.1707 -0.134134 0)
(-0.140818 -0.155424 0)
(-0.101846 -0.156745 0)
(-0.0592921 -0.133304 0)
(-0.0226557 -0.0868342 0)
(-0.00170984 -0.028431 0)
(-0.00127102 0.034864 0)
(-0.0124794 0.0836367 0)
(-0.0300715 0.114381 0)
(-0.0512993 0.131494 0)
(-0.0739608 0.138395 0)
(-0.0969605 0.137368 0)
(-0.119699 0.129546 0)
(-0.141744 0.115162 0)
(-0.162616 0.0939138 0)
(-0.181623 0.0653548 0)
(-0.197717 0.0292929 0)
(-0.209384 -0.0137662 0)
(-0.214597 -0.0620988 0)
(-0.210898 -0.11216 0)
(-0.195746 -0.157993 0)
(-0.167326 -0.190974 0)
(-0.12606 -0.200617 0)
(-0.0768197 -0.177685 0)
(-0.0309762 -0.120442 0)
(-0.00262189 -0.0412602 0)
(-0.00128176 0.0414083 0)
(-0.0126548 0.0985042 0)
(-0.0302006 0.133936 0)
(-0.0510808 0.1533 0)
(-0.0730218 0.161003 0)
(-0.095029 0.159999 0)
(-0.116702 0.151774 0)
(-0.137871 0.136655 0)
(-0.158366 0.114227 0)
(-0.17783 0.083755 0)
(-0.195547 0.044603 0)
(-0.210266 -0.00329612 0)
(-0.220048 -0.0588485 0)
(-0.222164 -0.119009 0)
(-0.213219 -0.177811 0)
(-0.189772 -0.225417 0)
(-0.14996 -0.247978 0)
(-0.0966164 -0.230202 0)
(-0.0417032 -0.16353 0)
(-0.00400443 -0.058908 0)
(-0.00132857 0.0480458 0)
(-0.0128346 0.113279 0)
(-0.0299276 0.153001 0)
(-0.049651 0.174097 0)
(-0.069673 0.182135 0)
(-0.0891584 0.180862 0)
(-0.10797 0.172201 0)
(-0.126261 0.156636 0)
(-0.144248 0.133694 0)
(-0.16202 0.102389 0)
(-0.179367 0.0616423 0)
(-0.195565 0.0107292 0)
(-0.209118 -0.0501254 0)
(-0.21747 -0.118866 0)
(-0.216793 -0.190309 0)
(-0.202178 -0.254402 0)
(-0.168977 -0.294606 0)
(-0.116442 -0.288624 0)
(-0.0547486 -0.216823 0)
(-0.00605886 -0.0828413 0)
(-0.0015182 0.0549114 0)
(-0.0134921 0.127855 0)
(-0.0299195 0.171014 0)
(-0.0476761 0.192838 0)
(-0.0644253 0.200324 0)
(-0.0796176 0.198153 0)
(-0.093483 0.188754 0)
(-0.106571 0.172831 0)
(-0.119535 0.149919 0)
(-0.132977 0.118868 0)
(-0.147303 0.0782316 0)
(-0.162513 0.0266591 0)
(-0.177903 -0.0365987 0)
(-0.191622 -0.110863 0)
(-0.2001 -0.19258 0)
(-0.197613 -0.272907 0)
(-0.176836 -0.334317 0)
(-0.132267 -0.348004 0)
(-0.069198 -0.279311 0)
(-0.00903262 -0.114576 0)
(-0.00205426 0.0625266 0)
(-0.0154696 0.142511 0)
(-0.0312967 0.187549 0)
(-0.0462544 0.208398 0)
(-0.0581854 0.213912 0)
(-0.0670867 0.209834 0)
(-0.0737328 0.19912 0)
(-0.0791538 0.182701 0)
(-0.0844656 0.160176 0)
(-0.0907844 0.130324 0)
(-0.0991378 0.0914743 0)
(-0.110322 0.0417987 0)
(-0.124635 -0.0203313 0)
(-0.141399 -0.0957338 0)
(-0.158141 -0.183126 0)
(-0.169459 -0.276434 0)
(-0.166317 -0.359781 0)
(-0.138239 -0.400465 0)
(-0.0827103 -0.347028 0)
(-0.0131418 -0.155218 0)
(-0.00329537 0.0720858 0)
(-0.020127 0.1581 0)
(-0.0356236 0.202313 0)
(-0.0466672 0.219494 0)
(-0.0517902 0.221 0)
(-0.0520318 0.21367 0)
(-0.0489803 0.200869 0)
(-0.0442431 0.183672 0)
(-0.039393 0.161727 0)
(-0.0359895 0.133813 0)
(-0.0355855 0.0981853 0)
(-0.0396813 0.0527772 0)
(-0.0495727 -0.00462097 0)
(-0.0659794 -0.0760746 0)
(-0.0882271 -0.162707 0)
(-0.112642 -0.262413 0)
(-0.130344 -0.364072 0)
(-0.127078 -0.435954 0)
(-0.0908733 -0.412108 0)
(-0.0182471 -0.204636 0)
(-0.00573968 0.0859378 0)
(-0.0293253 0.176125 0)
(-0.0443517 0.214758 0)
(-0.0491557 0.224208 0)
(-0.0442605 0.219073 0)
(-0.0326092 0.207002 0)
(-0.0169335 0.191393 0)
(0.000521896 0.173218 0)
(0.0177957 0.152068 0)
(0.0330264 0.12673 0)
(0.0443232 0.0955037 0)
(0.0496986 0.0563327 0)
(0.0470826 0.00683691 0)
(0.0344877 -0.0557162 0)
(0.0105482 -0.134304 0)
(-0.0239422 -0.23104 0)
(-0.0627123 -0.342238 0)
(-0.0905666 -0.443743 0)
(-0.0866771 -0.462879 0)
(-0.0231598 -0.26087 0)
(-0.00992628 0.109122 0)
(-0.0444969 0.19841 0)
(-0.0559761 0.222608 0)
(-0.0482913 0.218519 0)
(-0.027231 0.203922 0)
(0.00121187 0.186077 0)
(0.033087 0.16757 0)
(0.065712 0.148817 0)
(0.0970043 0.129129 0)
(0.125083 0.107255 0)
(0.148007 0.081623 0)
(0.163612 0.0503867 0)
(0.169411 0.0113799 0)
(0.162574 -0.0381037 0)
(0.14008 -0.101776 0)
(0.09956 -0.184843 0)
(0.0424415 -0.292008 0)
(-0.0195365 -0.413609 0)
(-0.0603872 -0.48441 0)
(-0.0250202 -0.320059 0)
(-0.0176252 0.152498 0)
(-0.0616734 0.223902 0)
(-0.0539364 0.216664 0)
(-0.0179025 0.192699 0)
(0.0296852 0.16798 0)
(0.0806288 0.145681 0)
(0.131198 0.126163 0)
(0.179306 0.10875 0)
(0.223491 0.092282 0)
(0.262412 0.0754566 0)
(0.294522 0.0569287 0)
(0.31789 0.0352233 0)
(0.330041 0.00868965 0)
(0.327873 -0.0247686 0)
(0.307493 -0.0683452 0)
(0.264174 -0.127953 0)
(0.193555 -0.214464 0)
(0.0981692 -0.336727 0)
(0.00144876 -0.455418 0)
(-0.0166689 -0.367325 0)
(-0.0239231 0.208939 0)
(-0.0373815 0.231109 0)
(0.037578 0.176677 0)
(0.124557 0.136254 0)
(0.204004 0.107849 0)
(0.274596 0.0866723 0)
(0.337189 0.0705571 0)
(0.392301 0.0578588 0)
(0.440177 0.0471199 0)
(0.480604 0.0371588 0)
(0.51308 0.0269572 0)
(0.536405 0.0155708 0)
(0.548565 0.0020404 0)
(0.546763 -0.0147802 0)
(0.527019 -0.036827 0)
(0.483664 -0.0680476 0)
(0.408252 -0.118463 0)
(0.288795 -0.209139 0)
(0.131877 -0.338278 0)
(0.037851 -0.339927 0)
(0.24205 0.109333 0)
(0.314082 0.097401 0)
(0.445246 0.0570632 0)
(0.550433 0.0350377 0)
(0.62433 0.0235434 0)
(0.679016 0.0164475 0)
(0.72191 0.0117142 0)
(0.756336 0.00847781 0)
(0.784 0.00613782 0)
(0.805778 0.00425312 0)
(0.821874 0.0024882 0)
(0.831887 0.000604373 0)
(0.834885 -0.00158717 0)
(0.829358 -0.00423803 0)
(0.812874 -0.00767348 0)
(0.781354 -0.0126044 0)
(0.72625 -0.0211113 0)
(0.630383 -0.03813 0)
(0.459413 -0.0859928 0)
(0.304832 -0.125806 0)
)
;

boundaryField
{
    movingWall
    {
        type            fixedValue;
        value           uniform (1 0 0);
    }
    fixedWalls
    {
        type            fixedValue;
        value           uniform (0 0 0);
    }
    frontAndBack
    {
        type            empty;
    }
}


// ************************************************************************* //
