/*--------------------------------*- C++ -*----------------------------------*\
  =========                 |
  \\      /  F ield         | OpenFOAM: The Open Source CFD Toolbox
   \\    /   O peration     | Website:  https://openfoam.org
    \\  /    A nd           | Version:  13
     \\/     M anipulation  |
\*---------------------------------------------------------------------------*/
FoamFile
{
    format      ascii;
    class       volVectorField;
    location    "16";
    object      U_0;
}
// * * * * * * * * * * * * * * * * * * * * * * * * * * * * * * * * * * * * * //

dimensions      [0 1 -1 0 0 0 0];

internalField   nonuniform List<vector> 
400
(
(0.000129367 -0.00013183 0)
(-0.000200142 6.63819e-05 0)
(-0.0014446 0.000273308 0)
(-0.00340788 0.00040598 0)
(-0.00579159 0.000473816 0)
(-0.00833268 0.00049411 0)
(-0.0108151 0.000476202 0)
(-0.0130444 0.000421263 0)
(-0.0148287 0.000326013 0)
(-0.0159762 0.000188014 0)
(-0.0163129 1.10808e-05 0)
(-0.0157163 -0.000190536 0)
(-0.0141593 -0.000390172 0)
(-0.0117511 -0.000551173 0)
(-0.00875821 -0.000634091 0)
(-0.00558992 -0.000608018 0)
(-0.00273877 -0.000462629 0)
(-0.000675267 -0.000217022 0)
(0.000305582 6.59945e-05 0)
(0.000238828 0.000233707 0)
(-7.56477e-05 0.00019682 0)
(-0.00182545 0.00173142 0)
(-0.00557217 0.00328384 0)
(-0.0108221 0.00434162 0)
(-0.0169391 0.00487984 0)
(-0.0233447 0.00496653 0)
(-0.0295258 0.00465517 0)
(-0.0350031 0.00396537 0)
(-0.0393109 0.00290045 0)
(-0.0420049 0.00147976 0)
(-0.0427044 -0.000227601 0)
(-0.0411638 -0.00207819 0)
(-0.0373578 -0.00384823 0)
(-0.0315567 -0.00525502 0)
(-0.024362 -0.00600953 0)
(-0.0166712 -0.00589513 0)
(-0.00955228 -0.00485494 0)
(-0.00402621 -0.00306573 0)
(-0.000776846 -0.00100311 0)
(0.000137203 0.000351401 0)
(-0.000330831 0.00156081 0)
(-0.00379537 0.00560488 0)
(-0.010049 0.00917115 0)
(-0.0182577 0.0115592 0)
(-0.0275214 0.0127326 0)
(-0.0370615 0.0128081 0)
(-0.0461735 0.0118837 0)
(-0.054188 0.0100052 0)
(-0.0604569 0.00720137 0)
(-0.0643723 0.0035493 0)
(-0.065422 -0.000757789 0)
(-0.0632778 -0.00536339 0)
(-0.0578986 -0.00974002 0)
(-0.0496251 -0.0132374 0)
(-0.0392329 -0.0151963 0)
(-0.0279047 -0.0151202 0)
(-0.0170885 -0.0128717 0)
(-0.00823004 -0.00883998 0)
(-0.00242479 -0.00403931 0)
(-3.74921e-05 -0.000317448 0)
(-0.000558434 0.00396342 0)
(-0.00566417 0.0116537 0)
(-0.0143082 0.0177784 0)
(-0.0252579 0.0217391 0)
(-0.0373477 0.0235884 0)
(-0.0496481 0.0235247 0)
(-0.061333 0.0217005 0)
(-0.0716153 0.0181923 0)
(-0.079727 0.0130617 0)
(-0.0849391 0.0064585 0)
(-0.0866198 -0.00127566 0)
(-0.0843291 -0.00953359 0)
(-0.0779363 -0.0174269 0)
(-0.067742 -0.0238547 0)
(-0.054573 -0.0276771 0)
(-0.0398012 -0.0279935 0)
(-0.0252277 -0.0244816 0)
(-0.0127941 -0.0177018 0)
(-0.00416392 -0.00924167 0)
(-0.000188815 -0.00184447 0)
(-0.000754714 0.0073056 0)
(-0.00735289 0.0197058 0)
(-0.0182061 0.0288711 0)
(-0.0316878 0.0345765 0)
(-0.0463779 0.0370999 0)
(-0.0612289 0.0367827 0)
(-0.0753433 0.033852 0)
(-0.0878697 0.028415 0)
(-0.0979636 0.0205576 0)
(-0.104795 0.010488 0)
(-0.107597 -0.00131858 0)
(-0.105761 -0.0140107 0)
(-0.0989659 -0.0263215 0)
(-0.0873429 -0.0366365 0)
(-0.0716406 -0.0432089 0)
(-0.0533374 -0.044547 0)
(-0.0346064 -0.0399406 0)
(-0.0180349 -0.0299811 0)
(-0.00609385 -0.0168275 0)
(-0.000330285 -0.00425479 0)
(-0.00092227 0.0114797 0)
(-0.0088459 0.0295662 0)
(-0.0216849 0.0422315 0)
(-0.0374637 0.0498528 0)
(-0.0545377 0.053073 0)
(-0.0717762 0.0524516 0)
(-0.0882545 0.0483181 0)
(-0.103103 0.0408074 0)
(-0.115436 0.0300031 0)
(-0.12434 0.0161287 0)
(-0.128895 -0.000260593 0)
(-0.128264 -0.0181197 0)
(-0.121827 -0.0358244 0)
(-0.1094 -0.0512015 0)
(-0.0914885 -0.0617486 0)
(-0.0695478 -0.0651172 0)
(-0.0461033 -0.0598715 0)
(-0.0245497 -0.0463589 0)
(-0.00849437 -0.0272678 0)
(-0.000500467 -0.00767945 0)
(-0.00106006 0.01638 0)
(-0.0101244 0.0410177 0)
(-0.024679 0.0576102 0)
(-0.0424636 0.0673283 0)
(-0.0616488 0.0713126 0)
(-0.0810604 0.07042 0)
(-0.09979 0.0651146 0)
(-0.116996 0.0555524 0)
(-0.131797 0.0417761 0)
(-0.14322 0.0239566 0)
(-0.150197 0.00263893 0)
(-0.151623 -0.0210342 0)
(-0.146494 -0.0451522 0)
(-0.134156 -0.0669802 0)
(-0.114666 -0.0831194 0)
(-0.0892294 -0.0900357 0)
(-0.060587 -0.0850707 0)
(-0.0330328 -0.0678337 0)
(-0.0117221 -0.0413665 0)
(-0.000746032 -0.0124221 0)
(-0.00116424 0.0218899 0)
(-0.0111563 0.0538034 0)
(-0.027095 0.0746939 0)
(-0.0465045 0.0866822 0)
(-0.0674115 0.0915298 0)
(-0.0886374 0.0904723 0)
(-0.109336 0.0841449 0)
(-0.128744 0.0727202 0)
(-0.146041 0.0561563 0)
(-0.160249 0.0344891 0)
(-0.170193 0.00813622 0)
(-0.174516 -0.021803 0)
(-0.17179 -0.0532678 0)
(-0.160769 -0.0830374 0)
(-0.140824 -0.106744 0)
(-0.112583 -0.119337 0)
(-0.078662 -0.116283 0)
(-0.0441555 -0.0956321 0)
(-0.0161831 -0.0602784 0)
(-0.00112466 -0.0189866 0)
(-0.00123159 0.0278753 0)
(-0.0119101 0.0676152 0)
(-0.0288327 0.0930838 0)
(-0.0493707 0.107468 0)
(-0.0714394 0.113269 0)
(-0.0938921 0.112183 0)
(-0.115988 0.105065 0)
(-0.137103 0.0921057 0)
(-0.156544 0.0731441 0)
(-0.173418 0.0480004 0)
(-0.186537 0.0168359 0)
(-0.194382 -0.0194689 0)
(-0.19515 -0.0589103 0)
(-0.186957 -0.0979756 0)
(-0.168287 -0.131403 0)
(-0.138769 -0.152402 0)
(-0.100331 -0.153846 0)
(-0.0584114 -0.130996 0)
(-0.0223193 -0.085473 0)
(-0.00171312 -0.0281022 0)
(-0.00126568 0.0341907 0)
(-0.0123847 0.0820998 0)
(-0.0298364 0.112287 0)
(-0.0508828 0.129084 0)
(-0.073347 0.135846 0)
(-0.0961462 0.134828 0)
(-0.118689 0.127158 0)
(-0.140548 0.113072 0)
(-0.161244 0.0922728 0)
(-0.180082 0.0643064 0)
(-0.196013 0.028964 0)
(-0.207525 -0.0132792 0)
(-0.212606 -0.0607457 0)
(-0.208826 -0.109959 0)
(-0.19369 -0.155065 0)
(-0.165439 -0.187577 0)
(-0.124543 -0.19718 0)
(-0.0758558 -0.174777 0)
(-0.0305693 -0.118604 0)
(-0.00261822 -0.0407506 0)
(-0.00128623 0.0407074 0)
(-0.0126562 0.0968954 0)
(-0.030174 0.131735 0)
(-0.0510029 0.150759 0)
(-0.0728821 0.158314 0)
(-0.0948263 0.15732 0)
(-0.116441 0.149251 0)
(-0.137555 0.134435 0)
(-0.15799 0.112454 0)
(-0.177379 0.0825653 0)
(-0.19499 0.0441186 0)
(-0.209563 -0.0029764 0)
(-0.219158 -0.0576582 0)
(-0.221065 -0.11693 0)
(-0.211933 -0.174905 0)
(-0.188396 -0.221875 0)
(-0.148686 -0.244186 0)
(-0.0956911 -0.226779 0)
(-0.0412519 -0.161202 0)
(-0.00398896 -0.0581812 0)
(-0.00134368 0.0473745 0)
(-0.0129451 0.111709 0)
(-0.0301388 0.150828 0)
(-0.0499613 0.171573 0)
(-0.0700783 0.179458 0)
(-0.08966 0.178197 0)
(-0.108571 0.169694 0)
(-0.12696 0.154427 0)
(-0.145029 0.131913 0)
(-0.162846 0.101156 0)
(-0.180177 0.0610593 0)
(-0.196276 0.0108825 0)
(-0.209632 -0.0491677 0)
(-0.217689 -0.117061 0)
(-0.216648 -0.187659 0)
(-0.201677 -0.251008 0)
(-0.168248 -0.290755 0)
(-0.11574 -0.284894 0)
(-0.0543117 -0.214073 0)
(-0.00602679 -0.0818745 0)
(-0.00154295 0.0543306 0)
(-0.0137086 0.126442 0)
(-0.0303649 0.169016 0)
(-0.0483719 0.190491 0)
(-0.0653745 0.197825 0)
(-0.080822 0.195668 0)
(-0.0949418 0.186427 0)
(-0.108274 0.170788 0)
(-0.121453 0.148272 0)
(-0.135057 0.11771 0)
(-0.149462 0.0776396 0)
(-0.164641 0.0266941 0)
(-0.179864 -0.0358838 0)
(-0.193264 -0.10942 0)
(-0.201278 -0.190372 0)
(-0.198232 -0.269949 0)
(-0.176919 -0.33076 0)
(-0.132002 -0.344295 0)
(-0.0688728 -0.27632 0)
(-0.00898204 -0.113377 0)
(-0.00208547 0.0620903 0)
(-0.015769 0.141363 0)
(-0.0319317 0.185867 0)
(-0.0472685 0.20638 0)
(-0.0595873 0.211747 0)
(-0.0688756 0.207682 0)
(-0.0758985 0.197116 0)
(-0.0816721 0.180957 0)
(-0.0872921 0.158781 0)
(-0.0938506 0.129347 0)
(-0.102349 0.0909625 0)
(-0.113559 0.0417872 0)
(-0.127755 -0.0198135 0)
(-0.144234 -0.0946534 0)
(-0.160508 -0.18144 0)
(-0.171189 -0.274104 0)
(-0.167318 -0.356836 0)
(-0.138571 -0.397164 0)
(-0.0826185 -0.344098 0)
(-0.0130777 -0.153849 0)
(-0.00332721 0.0718296 0)
(-0.020464 0.157295 0)
(-0.0363581 0.201049 0)
(-0.0478604 0.217923 0)
(-0.0534561 0.219286 0)
(-0.0541649 0.21196 0)
(-0.0515576 0.199282 0)
(-0.0472231 0.182301 0)
(-0.042715 0.160643 0)
(-0.0395725 0.133064 0)
(-0.0393301 0.0978002 0)
(-0.0434733 0.0527727 0)
(-0.0532848 -0.00423535 0)
(-0.0694677 -0.0752879 0)
(-0.0913239 -0.161498 0)
(-0.115159 -0.260744 0)
(-0.132114 -0.36191 0)
(-0.128017 -0.43338 0)
(-0.0911126 -0.409597 0)
(-0.0181869 -0.203238 0)
(-0.00576341 0.0858638 0)
(-0.0296323 0.175685 0)
(-0.045051 0.213954 0)
(-0.0503203 0.223135 0)
(-0.0459119 0.217861 0)
(-0.0347408 0.205772 0)
(-0.019514 0.190243 0)
(-0.00245337 0.172224 0)
(0.0144966 0.151283 0)
(0.0294896 0.12619 0)
(0.0406466 0.095231 0)
(0.0459839 0.0563403 0)
(0.0434319 0.00712994 0)
(0.0310061 -0.0551396 0)
(0.00735566 -0.133452 0)
(-0.0266972 -0.229915 0)
(-0.0648585 -0.340817 0)
(-0.0919228 -0.442025 0)
(-0.0872448 -0.461061 0)
(-0.0231358 -0.259641 0)
(-0.0099307 0.109183 0)
(-0.0446938 0.19828 0)
(-0.0564817 0.222219 0)
(-0.0491828 0.217908 0)
(-0.028545 0.203178 0)
(-0.000529344 0.18529 0)
(0.0309445 0.166815 0)
(0.0632188 0.148149 0)
(0.0942284 0.128588 0)
(0.122105 0.106872 0)
(0.144914 0.0814212 0)
(0.160488 0.0503859 0)
(0.166337 0.0115914 0)
(0.159628 -0.0376816 0)
(0.137343 -0.101167 0)
(0.0971268 -0.184088 0)
(0.0404114 -0.291144 0)
(-0.0209631 -0.412615 0)
(-0.0611092 -0.483327 0)
(-0.0250595 -0.319158 0)
(-0.0175993 0.1526 0)
(-0.0617038 0.223957 0)
(-0.054132 0.216558 0)
(-0.0183429 0.192436 0)
(0.0289459 0.167606 0)
(0.0795639 0.145253 0)
(0.129811 0.125728 0)
(0.177629 0.108346 0)
(0.221573 0.0919378 0)
(0.260317 0.075195 0)
(0.292316 0.0567773 0)
(0.315635 0.0352079 0)
(0.327801 0.0088249 0)
(0.325712 -0.0244836 0)
(0.305488 -0.067931 0)
(0.262402 -0.127454 0)
(0.19207 -0.213967 0)
(0.0970866 -0.336254 0)
(0.000810114 -0.455033 0)
(-0.0167908 -0.366836 0)
(-0.0238821 0.20901 0)
(-0.037311 0.231222 0)
(0.0376371 0.176719 0)
(0.124519 0.13622 0)
(0.203805 0.107736 0)
(0.274203 0.0865004 0)
(0.336582 0.0703587 0)
(0.391483 0.057661 0)
(0.439168 0.046944 0)
(0.479425 0.0370238 0)
(0.511762 0.0268861 0)
(0.535017 0.0155814 0)
(0.547177 0.00214395 0)
(0.545445 -0.0145886 0)
(0.525828 -0.0365906 0)
(0.482643 -0.06783 0)
(0.407463 -0.118304 0)
(0.28823 -0.209069 0)
(0.131512 -0.338272 0)
(0.0376584 -0.339809 0)
(0.242066 0.109352 0)
(0.314156 0.0974233 0)
(0.445371 0.0570518 0)
(0.550559 0.0350025 0)
(0.624417 0.0234905 0)
(0.67902 0.0163879 0)
(0.721791 0.0116556 0)
(0.756084 0.00842387 0)
(0.783631 0.00609373 0)
(0.805322 0.00422724 0)
(0.821373 0.00248652 0)
(0.83139 0.000628452 0)
(0.834442 -0.00153618 0)
(0.82902 -0.00415957 0)
(0.812685 -0.00756636 0)
(0.781326 -0.0124761 0)
(0.726335 -0.0209821 0)
(0.630499 -0.0380233 0)
(0.459448 -0.0860116 0)
(0.304802 -0.125818 0)
)
;

boundaryField
{
    movingWall
    {
        type            calculated;
        value           uniform (1 0 0);
    }
    fixedWalls
    {
        type            calculated;
        value           uniform (0 0 0);
    }
    frontAndBack
    {
        type            empty;
    }
}


// ************************************************************************* //
