/*--------------------------------*- C++ -*----------------------------------*\
  =========                 |
  \\      /  F ield         | OpenFOAM: The Open Source CFD Toolbox
   \\    /   O peration     | Website:  https://openfoam.org
    \\  /    A nd           | Version:  13
     \\/     M anipulation  |
\*---------------------------------------------------------------------------*/
FoamFile
{
    format      ascii;
    class       volScalarField;
    location    "42";
    object      p;
}
// * * * * * * * * * * * * * * * * * * * * * * * * * * * * * * * * * * * * * //

dimensions      [0 2 -2 0 0 0 0];

internalField   nonuniform List<scalar> 
400
(
-1.49469e-09
-0.000529203
-0.00117491
-0.00167489
-0.00190942
-0.00182913
-0.00140954
-0.000639706
0.000471292
0.00187922
0.00348967
0.00515185
0.00666947
0.00783251
0.00846753
0.00849419
0.00796854
0.00709693
0.00621162
0.00565827
0.000536309
-1.12108e-05
-0.000581464
-0.000980886
-0.00115714
-0.0010834
-0.000738482
-0.000107312
0.000810489
0.00198579
0.003345
0.00476304
0.00607054
0.00708229
0.00764292
0.0076791
0.00723781
0.00649131
0.00570108
0.00513812
0.0012073
0.000522209
-8.03611e-05
-0.000444901
-0.000606019
-0.000571235
-0.000325213
0.000154692
0.000884981
0.00185831
0.00302502
0.0042815
0.00547328
0.00641958
0.00695879
0.007003
0.00657885
0.00582671
0.00495182
0.00421855
0.00168933
0.000805872
8.57518e-05
-0.000322088
-0.000530768
-0.000580665
-0.000459973
-0.000133767
0.000436827
0.00127161
0.00234627
0.00357335
0.00479859
0.00582195
0.00644536
0.00653693
0.006085
0.00520295
0.00407644
0.00304123
0.00172673
0.00064271
-0.000220972
-0.000716187
-0.0010229
-0.00120668
-0.00125316
-0.00110894
-0.000705841
1.03949e-05
0.00104738
0.00233763
0.00372397
0.00497392
0.00582785
0.00607653
0.00563941
0.00459039
0.00311541
0.00168242
0.00110758
-0.000155105
-0.00116372
-0.00177601
-0.00222826
-0.00260307
-0.00287723
-0.00297244
-0.00278338
-0.00221063
-0.00120127
0.000211754
0.00187726
0.00352737
0.00481851
0.00542214
0.00513836
0.00396333
0.00208049
0.000151529
-0.000346181
-0.00175521
-0.00290191
-0.00365838
-0.00430775
-0.00494347
-0.00552923
-0.00595698
-0.0060761
-0.00572806
-0.00479298
-0.00324563
-0.00120333
0.00104232
0.00304874
0.00431805
0.00445384
0.00329614
0.000986507
-0.00154957
-0.00277143
-0.00428822
-0.0055621
-0.00648928
-0.00739156
-0.00837032
-0.00937564
-0.010268
-0.0108451
-0.0108743
-0.0101429
-0.00852575
-0.00606393
-0.00303531
2.45008e-05
0.00240109
0.00339665
0.00255854
-0.000117423
-0.00337282
-0.00625189
-0.00783319
-0.00921775
-0.0103356
-0.0115418
-0.0129473
-0.014493
-0.0160109
-0.0172447
-0.0178757
-0.0175702
-0.0160573
-0.0132371
-0.00930449
-0.00484241
-0.000801254
0.00170284
0.00171882
-0.00111095
-0.00516255
-0.0108084
-0.0124067
-0.0138728
-0.0151791
-0.0167144
-0.0186072
-0.0207992
-0.0231023
-0.0252103
-0.0267128
-0.0271345
-0.0260142
-0.0230404
-0.0182232
-0.0120923
-0.00578865
-0.000933199
0.000764845
-0.00175211
-0.00656839
-0.0163991
-0.0179615
-0.0194532
-0.0208966
-0.0227265
-0.0251059
-0.0279927
-0.031191
-0.0343538
-0.0369833
-0.0384552
-0.0380881
-0.0353049
-0.0298123
-0.0219369
-0.0128704
-0.0047263
-0.000222876
-0.00159896
-0.00691356
-0.0229386
-0.0244015
-0.0258133
-0.027255
-0.0292424
-0.032003
-0.0355293
-0.0396299
-0.0439272
-0.047846
-0.050623
-0.0513631
-0.0491532
-0.0433484
-0.0338985
-0.021813
-0.00952713
-0.00089685
0.000123457
-0.00499935
-0.0303475
-0.0316195
-0.0327576
-0.0339222
-0.035785
-0.0386834
-0.0426611
-0.0475357
-0.0529019
-0.0581138
-0.0622809
-0.0643033
-0.0629785
-0.0572409
-0.0465501
-0.0314778
-0.0144484
-0.00033979
0.00475811
0.00117431
-0.038655
-0.0395624
-0.0400742
-0.0404904
-0.041773
-0.0444243
-0.0485431
-0.0539416
-0.0601713
-0.0665085
-0.0719413
-0.0751884
-0.0747832
-0.0692742
-0.0575951
-0.0396929
-0.0175728
0.00328845
0.0145694
0.0147663
-0.0482017
-0.0483341
-0.0475686
-0.0465006
-0.0465768
-0.0484992
-0.0523875
-0.058003
-0.0648124
-0.0719844
-0.0783714
-0.0825157
-0.0827128
-0.0771771
-0.0643664
-0.0435565
-0.0159972
0.0129077
0.0330036
0.0403137
-0.0599868
-0.0583627
-0.055108
-0.0514788
-0.0496032
-0.050311
-0.0536338
-0.0591939
-0.0663061
-0.0739802
-0.0808975
-0.0854041
-0.0855554
-0.0792564
-0.0645512
-0.0401144
-0.0062986
0.0322745
0.064469
0.0832604
-0.0762575
-0.070716
-0.0626623
-0.0549789
-0.050393
-0.0495139
-0.0520656
-0.0574043
-0.0646099
-0.072476
-0.0794733
-0.0837204
-0.0830043
-0.074887
-0.0569746
-0.027353
0.0145456
0.0654698
0.114367
0.150166
-0.104168
-0.087938
-0.0699877
-0.0562751
-0.048376
-0.0457795
-0.0475802
-0.0527145
-0.0599407
-0.0678005
-0.0745464
-0.07807
-0.0758825
-0.0651415
-0.042857
-0.00620871
0.0467475
0.115314
0.191471
0.25828
-0.175974
-0.114888
-0.0736116
-0.0518915
-0.0411826
-0.0375747
-0.0392813
-0.0447289
-0.0523084
-0.0603501
-0.0669701
-0.0699176
-0.0665138
-0.0535804
-0.0273897
0.0163974
0.0827232
0.177367
0.305413
0.452676
-0.355844
-0.155252
-0.0704316
-0.0427823
-0.0313508
-0.0276017
-0.0297783
-0.0359588
-0.0442023
-0.0527096
-0.059568
-0.0625168
-0.058828
-0.0451704
-0.0172501
0.0308049
0.108415
0.233349
0.434796
0.735862
)
;

boundaryField
{
    movingWall
    {
        type            zeroGradient;
    }
    fixedWalls
    {
        type            zeroGradient;
    }
    frontAndBack
    {
        type            empty;
    }
}


// ************************************************************************* //
