/*--------------------------------*- C++ -*----------------------------------*\
  =========                 |
  \\      /  F ield         | OpenFOAM: The Open Source CFD Toolbox
   \\    /   O peration     | Website:  https://openfoam.org
    \\  /    A nd           | Version:  13
     \\/     M anipulation  |
\*---------------------------------------------------------------------------*/
FoamFile
{
    format      ascii;
    class       volScalarField;
    location    "42";
    object      p;
}
// * * * * * * * * * * * * * * * * * * * * * * * * * * * * * * * * * * * * * //

dimensions      [0 2 -2 0 0 0 0];

internalField   nonuniform List<scalar> 
400
(
3.95887e-08
-0.00057249
-0.00121609
-0.00171896
-0.00195928
-0.00188477
-0.00147058
-0.000705634
0.000401198
0.00180586
0.0034146
0.00507492
0.00659096
0.00775101
0.00837972
0.00839555
0.00785526
0.00696882
0.00604794
0.00549426
0.000569881
-2.03833e-05
-0.000569774
-0.000957145
-0.00113211
-0.00106206
-0.000726067
-0.000109345
0.000788665
0.00193935
0.00326969
0.00466003
0.00594061
0.00692973
0.00747416
0.00750171
0.00705914
0.00631876
0.00554318
0.00497256
0.00124562
0.000492912
-8.67941e-05
-0.000441461
-0.000606256
-0.000576391
-0.000337374
0.00013249
0.000849586
0.00180678
0.00295474
0.0041917
0.00536434
0.00629373
0.00681918
0.00685283
0.00642068
0.00566811
0.00480886
0.00403712
0.00174051
0.000763615
7.35926e-05
-0.000322022
-0.000537219
-0.00059284
-0.000478336
-0.000160263
0.00039992
0.00122198
0.00228158
0.00349277
0.00470162
0.00570965
0.00631932
0.00639809
0.00593345
0.0050505
0.00394834
0.00284437
0.0017954
0.000595641
-0.000227774
-0.000704897
-0.00101822
-0.00120733
-0.00125946
-0.00112311
-0.000730602
-2.79304e-05
0.000991656
0.00226351
0.00362999
0.00486117
0.00569861
0.00593226
0.00548034
0.00443543
0.00299988
0.00146204
0.00119464
-0.000203104
-0.00116336
-0.00175277
-0.00221148
-0.00259075
-0.00286935
-0.00297129
-0.00279202
-0.00223301
-0.00124415
0.000150445
0.00179278
0.00341977
0.00469016
0.00527467
0.00497185
0.00380563
0.00197897
-0.000104095
-0.000241682
-0.00180016
-0.00289232
-0.00362228
-0.00427776
-0.00491669
-0.00550514
-0.00593761
-0.00606463
-0.00572852
-0.00480699
-0.00328524
-0.00127041
0.000946628
0.00292622
0.0041698
0.00427921
0.0031355
0.000902567
-0.0018563
-0.002652
-0.00432641
-0.00554131
-0.00643933
-0.00734716
-0.00832778
-0.00933393
-0.0102288
-0.0108113
-0.0108505
-0.0101336
-0.00853906
-0.00610712
-0.00311232
-8.64926e-05
0.00225498
0.0032126
0.00239523
-0.000177413
-0.003753
-0.00612142
-0.00786175
-0.00918478
-0.0102718
-0.011483
-0.0128894
-0.0144344
-0.0159529
-0.0171896
-0.0178277
-0.0175354
-0.0160428
-0.0132532
-0.00935757
-0.0049361
-0.000941479
0.00150802
0.00155453
-0.0011372
-0.00564685
-0.0106716
-0.0124237
-0.0138275
-0.0151021
-0.0166422
-0.0185358
-0.0207272
-0.0230305
-0.0251405
-0.0266492
-0.0270841
-0.0259776
-0.0230343
-0.0182542
-0.0121678
-0.00592221
-0.00114235
0.000602967
-0.00173144
-0.0071952
-0.0162605
-0.0179654
-0.0193958
-0.0208062
-0.0226415
-0.0250234
-0.0279113
-0.0311115
-0.0342775
-0.0369139
-0.0383953
-0.0380067
-0.0352842
-0.0298336
-0.0220052
-0.0130065
-0.00495988
-0.000375627
-0.00151608
-0.00772073
-0.022803
-0.0243901
-0.0257427
-0.0271484
-0.0291435
-0.0319106
-0.0354424
-0.0395494
-0.0438549
-0.0477847
-0.05058
-0.0513772
-0.0491635
-0.043394
-0.0339889
-0.0219777
-0.00980599
-0.00102483
0.000279987
-0.00600006
-0.0302226
-0.0315863
-0.0326696
-0.033792
-0.0356681
-0.0385799
-0.042569
-0.047455
-0.0528343
-0.0580627
-0.0622511
-0.0643106
-0.0630223
-0.0573321
-0.0466929
-0.031705
-0.0148012
-0.000417133
0.00496555
2.27496e-05
-0.03856
-0.0394895
-0.0399612
-0.0403269
-0.041635
-0.0443096
-0.0484456
-0.0538593
-0.0601059
-0.0664654
-0.0719295
-0.0752216
-0.0748704
-0.0694214
-0.0578071
-0.0400022
-0.0180233
0.00327949
0.0146985
0.0135557
-0.0481748
-0.048157
-0.0474035
-0.0462842
-0.0464121
-0.0483712
-0.0522815
-0.0579131
-0.0647394
-0.0719354
-0.0783607
-0.0825613
-0.0828323
-0.0773739
-0.0646453
-0.043937
-0.0165435
0.0130188
0.032931
0.0392807
-0.060235
-0.0579577
-0.0548672
-0.0512135
-0.0494272
-0.0501784
-0.0535204
-0.0590937
-0.0662201
-0.0739188
-0.0808795
-0.0854535
-0.085707
-0.0795199
-0.064942
-0.0406113
-0.00697891
0.0328168
0.0647937
0.0836768
-0.0774815
-0.0694733
-0.0620875
-0.0545495
-0.050139
-0.0493251
-0.0519045
-0.0572611
-0.0644863
-0.072385
-0.07944
-0.0837784
-0.0832185
-0.075283
-0.0576215
-0.0282113
0.0133524
0.066661
0.115752
0.154807
-0.108926
-0.0850402
-0.0697734
-0.0563916
-0.0485411
-0.0458812
-0.0476243
-0.0527151
-0.0599173
-0.0677771
-0.0745524
-0.0781401
-0.0761045
-0.0655427
-0.0436433
-0.00744515
0.0447431
0.114933
0.188078
0.263281
-0.168693
-0.100746
-0.0730932
-0.0522882
-0.0413103
-0.0376998
-0.0394421
-0.0448655
-0.0524158
-0.060447
-0.067074
-0.0700479
-0.0666876
-0.0537885
-0.0278899
0.0154098
0.0800715
0.17276
0.285854
0.445985
-0.402754
-0.139031
-0.0734593
-0.0447302
-0.0305719
-0.0266176
-0.0290857
-0.0353736
-0.0436541
-0.0522075
-0.0591241
-0.0621457
-0.0586176
-0.0452141
-0.0174509
0.0310786
0.108495
0.236657
0.427487
0.79368
)
;

boundaryField
{
    movingWall
    {
        type            zeroGradient;
    }
    fixedWalls
    {
        type            zeroGradient;
    }
    frontAndBack
    {
        type            empty;
    }
}


// ************************************************************************* //
