/*--------------------------------*- C++ -*----------------------------------*\
  =========                 |
  \\      /  F ield         | OpenFOAM: The Open Source CFD Toolbox
   \\    /   O peration     | Website:  https://openfoam.org
    \\  /    A nd           | Version:  13
     \\/     M anipulation  |
\*---------------------------------------------------------------------------*/
FoamFile
{
    format      ascii;
    class       surfaceScalarField;
    location    "42";
    object      phi;
}
// * * * * * * * * * * * * * * * * * * * * * * * * * * * * * * * * * * * * * //

dimensions      [0 3 -1 0 0 0 0];

internalField   nonuniform List<scalar> 
760
(
4.63171e-06
-4.63152e-06
-3.88657e-05
4.34976e-05
-0.00013167
9.28038e-05
-0.000257812
0.000126142
-0.000401336
0.000143524
-0.000548831
0.000147495
-0.000688395
0.000139564
-0.000808258
0.000119863
-0.000896222
8.79642e-05
-0.000940362
4.41408e-05
-0.000930958
-9.40524e-06
-0.000863267
-6.76906e-05
-0.000740355
-0.000122912
-0.000574984
-0.000165372
-0.000389419
-0.000185565
-0.000212354
-0.000177065
-7.29538e-05
-0.0001394
7.03619e-06
-7.99904e-05
2.27318e-05
-1.56959e-05
2.27322e-05
-4.73621e-05
4.27305e-05
-0.000210073
0.000206209
-0.000474664
0.000357394
-0.000808457
0.000459936
-0.00117707
0.000512138
-0.00154887
0.00051929
-0.00189426
0.000484955
-0.00218426
0.000409864
-0.00239039
0.0002941
-0.00248675
0.000140503
-0.00245406
-4.21003e-05
-0.0022848
-0.000236955
-0.00198824
-0.000419465
-0.00159345
-0.000560166
-0.00114844
-0.000630571
-0.000714152
-0.000611355
-0.000352683
-0.000500868
-0.000111444
-0.000321228
-5.81013e-06
-0.000121329
1.69229e-05
-0.000112182
0.000154912
-0.000406662
0.00050069
-0.000837167
0.000787898
-0.00135444
0.000977213
-0.00191139
0.00106909
-0.00246437
0.00107227
-0.00297194
0.000992526
-0.00339367
0.000831595
-0.00369069
0.00059112
-0.0038286
0.000278415
-0.00378242
-8.82836e-05
-0.00354261
-0.000476766
-0.00312096
-0.000841117
-0.00255449
-0.00112663
-0.00190537
-0.00127968
-0.00125461
-0.00126212
-0.000688113
-0.00106736
-0.000276515
-0.000732827
-5.33503e-05
-0.000344492
-3.64269e-05
-0.000173891
0.000328803
-0.000595618
0.000922415
-0.00118276
0.00137504
-0.00186709
0.00166154
-0.00259033
0.00179233
-0.00330064
0.00178257
-0.00394928
0.00164116
-0.00448885
0.00137117
-0.00487383
0.000976096
-0.00506349
0.000468078
-0.00502694
-0.000124829
-0.00474945
-0.000754263
-0.00423926
-0.00135131
-0.00353356
-0.00183233
-0.00270122
-0.00211203
-0.00183894
-0.00212441
-0.00105756
-0.00184874
-0.000458106
-0.00133228
-0.000103614
-0.000698983
-0.000140041
-0.000228823
0.000557626
-0.000765551
0.00145914
-0.00149452
0.00210401
-0.00232909
0.00249611
-0.00320134
0.00266458
-0.00405397
0.00263521
-0.00483448
0.00242167
-0.00549189
0.00202858
-0.0059764
0.00146061
-0.00624154
0.000733218
-0.00624854
-0.000117829
-0.00597264
-0.00103016
-0.00541137
-0.00191257
-0.00459372
-0.00264998
-0.00358806
-0.00311767
-0.00250407
-0.0032084
-0.00148191
-0.0028709
-0.000664597
-0.00214959
-0.0001584
-0.00120518
-0.000298441
-0.000275113
0.000832739
-0.000909781
0.00209381
-0.00176056
0.00295479
-0.00272518
0.00346073
-0.00372832
0.00366771
-0.0047099
0.00361679
-0.00561662
0.0033284
-0.0063968
0.00280876
-0.00699835
0.00206216
-0.00736935
0.00110422
-0.00746122
-2.59559e-05
-0.00723444
-0.00125694
-0.00666835
-0.00247867
-0.0057742
-0.00354413
-0.00461041
-0.00428146
-0.00329383
-0.00452498
-0.00199672
-0.00416801
-0.000917609
-0.0032287
-0.000225243
-0.00189755
-0.000523683
-0.000310854
0.00114359
-0.00102205
0.002805
-0.00196915
0.00390189
-0.00303819
0.00452977
-0.0041491
0.00477862
-0.00524165
0.00470934
-0.00626458
0.00435133
-0.00716836
0.00371254
-0.00790098
0.00279478
-0.00840647
0.00160971
-0.00862588
0.000193452
-0.00850222
-0.0013806
-0.00799016
-0.00299073
-0.00707304
-0.00446125
-0.00578602
-0.00556848
-0.00424076
-0.00607024
-0.00263757
-0.00577121
-0.0012426
-0.00462367
-0.00031358
-0.00282657
-0.000837263
-0.000334137
0.00147773
-0.00109627
0.00356713
-0.00210843
0.00491406
-0.00324903
0.00567036
-0.00443595
0.00596554
-0.00561125
0.00588464
-0.00672847
0.00546855
-0.00774334
0.00472741
-0.00860734
0.00365879
-0.00926366
0.00226603
-0.00964563
0.000575419
-0.00967914
-0.00134709
-0.00929118
-0.00337868
-0.00842798
-0.00532445
-0.00708514
-0.00691132
-0.00534799
-0.0078074
-0.00342836
-0.00769083
-0.00166385
-0.00638818
-0.000433751
-0.00405667
-0.00127101
-0.000343718
0.00182145
-0.00112802
0.00435143
-0.00216855
0.00595459
-0.0033397
0.00684151
-0.00455961
0.00718546
-0.00577475
0.00709978
-0.00694612
0.00663992
-0.00803817
0.00581947
-0.00901035
0.00463097
-0.00981051
0.00306619
-0.0103704
0.00113526
-0.0106041
-0.00111335
-0.0104133
-0.00356951
-0.00970217
-0.00603555
-0.00841074
-0.00820275
-0.00656921
-0.00964893
-0.00436743
-0.00989261
-0.00219931
-0.0085563
-0.000596604
-0.00565938
-0.00186762
-0.000340115
0.00216156
-0.00111717
0.00512849
-0.0021458
0.00698322
-0.00329891
0.00799461
-0.00449668
0.00838323
-0.00569196
0.00829506
-0.0068557
0.00780365
-0.00796468
0.00692845
-0.00899151
0.0056578
-0.00989597
0.00397065
-0.0106174
0.00185671
-0.0110688
-0.000661954
-0.0111358
-0.00350256
-0.0106837
-0.00648762
-0.00958685
-0.00929961
-0.00778985
-0.0114459
-0.00541034
-0.0122721
-0.00285277
-0.0111139
-0.00081288
-0.00769927
-0.0026805
-0.000327095
0.00248866
-0.00107146
0.00587285
-0.00204801
0.00795977
-0.00312919
0.00907579
-0.00423907
0.00949311
-0.00533905
0.00939504
-0.00641262
0.00887722
-0.00745235
0.00796818
-0.00844904
0.00665448
-0.00938194
0.00490355
-0.0102091
0.00268388
-0.0108558
-1.5297e-05
-0.0112088
-0.00314957
-0.0111079
-0.00658844
-0.0103649
-0.0100427
-0.00881697
-0.0129938
-0.00645159
-0.0146375
-0.0036015
-0.013964
-0.00109152
-0.0102092
-0.00377202
-0.00031359
0.00280225
-0.00101058
0.00656984
-0.00190019
0.00884938
-0.00285404
0.0100296
-0.003803
0.0104421
-0.00472064
0.0103127
-0.0056062
0.00976279
-0.00647106
0.00883304
-0.00732807
0.00751149
-0.00818185
0.00575734
-0.00901813
0.00352016
-0.0097918
0.000758371
-0.0104069
-0.00253444
-0.0107052
-0.00629016
-0.0104559
-0.0102919
-0.00938879
-0.014061
-0.00731288
-0.0167134
-0.00437992
-0.0168969
-0.0014357
-0.0131535
-0.00520771
-0.000316414
0.00311866
-0.000970919
0.00722434
-0.00174955
0.00962801
-0.00252235
0.0108024
-0.00323353
0.0111532
-0.00387556
0.0109547
-0.00446804
0.0103553
-0.00504386
0.00940886
-0.00563973
0.00810736
-0.00628819
0.0064058
-0.0070083
0.00424028
-0.00779266
0.00154273
-0.00858672
-0.00174038
-0.00926219
-0.0056147
-0.00958556
-0.00996855
-0.00920909
-0.0144375
-0.00774805
-0.0181744
-0.00506371
-0.0195813
-0.00183481
-0.0163824
-0.00704252
-0.000364724
0.00348338
-0.00101088
0.0078705
-0.00166759
0.0102847
-0.00220633
0.0113412
-0.00259875
0.0115457
-0.00286825
0.0112242
-0.00306159
0.0105486
-0.00323557
0.00958283
-0.00345036
0.00832215
-0.00376477
0.00672021
-0.00423032
0.00470583
-0.00488132
0.00219373
-0.00571663
-0.000905069
-0.00666783
-0.0046635
-0.00754859
-0.0090878
-0.00799607
-0.01399
-0.00746677
-0.0187037
-0.00546081
-0.0215872
-0.00225032
-0.0195929
-0.00929284
-0.000506788
0.00399017
-0.0012145
0.00857821
-0.00174279
0.010813
-0.00198187
0.0115802
-0.00195981
0.0115236
-0.00175016
0.0110146
-0.00143581
0.0102343
-0.00109942
0.00924644
-0.000822205
0.00804494
-0.000684234
0.00658225
-0.000763508
0.00478511
-0.0011317
0.00256192
-0.00184271
-0.000194061
-0.00290575
-0.00360046
-0.00422856
-0.00776499
-0.0055168
-0.0127017
-0.00616134
-0.0180592
-0.00530789
-0.0224407
-0.00259305
-0.0223077
-0.0118859
-0.000812207
0.00480238
-0.00167814
0.00944415
-0.00203516
0.01117
-0.00185304
0.0113981
-0.00127326
0.0109438
-0.000446631
0.0101879
0.000499043
0.00928859
0.00145542
0.00829006
0.00232511
0.00717525
0.00301427
0.00589309
0.00342754
0.00437184
0.00346599
0.00252348
0.00302986
0.000242071
0.00203334
-0.00260394
0.000449175
-0.00618082
-0.00157712
-0.0106755
-0.00351247
-0.0161239
-0.00426129
-0.0216919
-0.00268958
-0.0238794
-0.0145755
-0.0013485
0.00615088
-0.00241739
0.010513
-0.00238215
0.0111348
-0.00149022
0.0105062
-9.79759e-05
0.00955158
0.00154322
0.00854673
0.003264
0.00756782
0.00494082
0.00661323
0.00647236
0.00564371
0.00776339
0.00460206
0.00871375
0.00342148
0.00921109
0.00202614
0.0091263
0.000326865
0.00831583
-0.00179348
0.00664067
-0.00450565
0.00405173
-0.00808651
0.000844819
-0.012917
-0.00188355
-0.0189635
-0.00225559
-0.0235074
-0.0168311
-0.00213523
0.00828611
-0.00292079
0.0112986
-0.00168462
0.00989863
0.000538809
0.00828276
0.00312095
0.00696944
0.00577098
0.0058967
0.00833557
0.00500323
0.0107178
0.00423096
0.0128433
0.00351828
0.0146386
0.00280676
0.016018
0.00204204
0.0168748
0.00116938
0.017072
0.00012961
0.0164383
-0.00115973
0.0147583
-0.00282568
0.0117979
-0.00512609
0.00746598
-0.00858505
0.00244948
-0.013947
-0.000882907
-0.020175
-0.017714
-0.002488
0.0107741
-1.26904e-05
0.00882328
0.00417762
0.00570832
0.00832809
0.0041323
0.0121235
0.00317404
0.0155325
0.00248771
0.0185556
0.00198013
0.021198
0.00158852
0.0234561
0.00126022
0.0253067
0.00095609
0.0267029
0.000645886
0.0275672
0.000305067
0.0277871
-9.02864e-05
0.0272032
-0.000575808
0.0255786
-0.00120106
0.0225519
-0.00209936
0.0176212
-0.00365443
0.0104028
-0.0067285
0.00247586
-0.0122481
-0.0152381
0.0107741
0.0195974
0.0253057
0.029438
0.032612
0.0350998
0.0370799
0.0386684
0.0399286
0.0408847
0.0415306
0.0418357
0.0417454
0.0411696
0.0399685
0.0378692
0.0342147
0.0274862
0.0152381
)
;

boundaryField
{
    movingWall
    {
        type            calculated;
        value           uniform 0;
    }
    fixedWalls
    {
        type            calculated;
        value           uniform 0;
    }
    frontAndBack
    {
        type            empty;
    }
}


// ************************************************************************* //
