/*--------------------------------*- C++ -*----------------------------------*\
  =========                 |
  \\      /  F ield         | OpenFOAM: The Open Source CFD Toolbox
   \\    /   O peration     | Website:  https://openfoam.org
    \\  /    A nd           | Version:  13
     \\/     M anipulation  |
\*---------------------------------------------------------------------------*/
FoamFile
{
    format      ascii;
    class       surfaceScalarField;
    location    "42";
    object      phi_0;
}
// * * * * * * * * * * * * * * * * * * * * * * * * * * * * * * * * * * * * * //

dimensions      [0 3 -1 0 0 0 0];

internalField   nonuniform List<scalar> 
760
(
4.61848e-06
-4.61826e-06
-3.88672e-05
4.34859e-05
-0.000131633
9.27654e-05
-0.000257718
0.000126086
-0.000401175
0.000143457
-0.000548597
0.000147422
-0.000688089
0.000139492
-0.00080789
0.000119801
-0.000895809
8.79193e-05
-0.000939931
4.41221e-05
-0.00093054
-9.39124e-06
-0.000862898
-6.76421e-05
-0.000740064
-0.000122834
-0.000574789
-0.000165276
-0.000389321
-0.000185469
-0.000212335
-0.000176985
-7.29825e-05
-0.000139352
6.99628e-06
-7.99792e-05
2.27088e-05
-1.57128e-05
2.27092e-05
-4.73444e-05
4.2726e-05
-0.000209975
0.000206116
-0.000474433
0.000357223
-0.000808057
0.000459711
-0.00117649
0.000511883
-0.00154809
0.000519028
-0.00189331
0.000484709
-0.00218316
0.00040966
-0.00238921
0.000293965
-0.00248555
0.000140462
-0.00245291
-4.20336e-05
-0.00228377
-0.00023678
-0.0019874
-0.000419199
-0.00159283
-0.000559847
-0.00114805
-0.000630248
-0.000713958
-0.000611081
-0.000352626
-0.000500683
-0.000111455
-0.000321149
-5.8315e-06
-0.000121336
1.68787e-05
-0.00011212
0.000154846
-0.00040644
0.000500437
-0.000836713
0.000787495
-0.00135371
0.000976711
-0.00191037
0.00106854
-0.00246306
0.00107172
-0.00297037
0.000992027
-0.00339191
0.000831195
-0.00368881
0.00059087
-0.00382671
0.000278354
-0.00378061
-8.81307e-05
-0.00354098
-0.000476405
-0.0031196
-0.000840583
-0.00255345
-0.001126
-0.00190467
-0.00127903
-0.0012542
-0.00126155
-0.00068793
-0.00106695
-0.000276468
-0.000732611
-5.3356e-05
-0.000344446
-3.64767e-05
-0.000173784
0.00032863
-0.000595269
0.000921921
-0.00118209
0.00137431
-0.00186604
0.00166066
-0.0025889
0.0017914
-0.00329885
0.00178167
-0.00394718
0.00164035
-0.00448651
0.00137053
-0.00487136
0.000975711
-0.005061
0.000468
-0.00502456
-0.000124571
-0.00474728
-0.000753679
-0.00423742
-0.00135045
-0.00353211
-0.0018313
-0.00270018
-0.00211096
-0.00183828
-0.00212345
-0.00105722
-0.00184801
-0.000457984
-0.00133184
-0.000103598
-0.00069883
-0.000140075
-0.000228678
0.000557308
-0.000765097
0.00145834
-0.00149367
0.00210288
-0.00232779
0.00249479
-0.00319959
0.0026632
-0.00405181
0.00263389
-0.00483197
0.00242051
-0.00548912
0.00202769
-0.00597348
0.00146007
-0.0062386
0.000733115
-0.0062457
-0.000117466
-0.00597003
-0.00102935
-0.0054091
-0.00191138
-0.00459186
-0.00264853
-0.00358668
-0.00311614
-0.00250316
-0.00320697
-0.00148141
-0.00286976
-0.000664389
-0.00214886
-0.000158361
-0.00120486
-0.000298435
-0.000274943
0.00083225
-0.000909261
0.00209266
-0.00175959
0.0029532
-0.00272373
0.00345893
-0.00372638
0.00366586
-0.00470753
0.00361504
-0.00561389
0.00332687
-0.00639379
0.00280759
-0.00699518
0.00206146
-0.00736614
0.00110408
-0.00745809
-2.55122e-05
-0.00723151
-0.00125592
-0.00666574
-0.00247716
-0.00577201
-0.00354226
-0.00460872
-0.00427943
-0.00329266
-0.00452303
-0.00199603
-0.00416639
-0.00091731
-0.00322758
-0.000225176
-0.001897
-0.000523611
-0.000310678
0.00114293
-0.00102151
0.00280349
-0.00196817
0.00389985
-0.00303672
0.00452748
-0.00414716
0.0047763
-0.00523928
0.00470716
-0.00626186
0.00434945
-0.00716536
0.0037111
-0.00789781
0.00279391
-0.00840324
0.0016095
-0.00862269
0.000193939
-0.00849918
-0.00137943
-0.0079874
-0.00298895
-0.00707065
-0.00445901
-0.0057841
-0.00556598
-0.00423937
-0.00606776
-0.00263672
-0.00576905
-0.00124221
-0.00462209
-0.000313484
-0.00282572
-0.000837095
-0.000333978
0.00147691
-0.00109578
0.0035653
-0.00210753
0.0049116
-0.00324769
0.00566763
-0.00443419
0.0059628
-0.0056091
0.00588208
-0.00672601
0.00546636
-0.00774064
0.00472573
-0.00860449
0.00365776
-0.00926073
0.00226575
-0.00964271
0.000575913
-0.00967631
-0.00134583
-0.00928853
-0.00337673
-0.0084256
-0.00532194
-0.00708315
-0.00690844
-0.00534647
-0.00780444
-0.00342738
-0.00768813
-0.00166337
-0.00638611
-0.000433624
-0.00405547
-0.00127072
-0.000343599
0.0018205
-0.00112764
0.00434935
-0.00216785
0.00595181
-0.00333865
0.00683843
-0.00455823
0.00718238
-0.00577308
0.00709693
-0.00694421
0.00663748
-0.00803609
0.00581761
-0.00900815
0.00462983
-0.00980825
0.00306585
-0.0103681
0.00113573
-0.0106018
-0.00111206
-0.0104111
-0.00356748
-0.00970013
-0.00603289
-0.00840892
-0.00819964
-0.00656773
-0.00964563
-0.00436641
-0.00988946
-0.00219877
-0.00855375
-0.000596448
-0.00565779
-0.00186717
-0.000340055
0.00216056
-0.00111697
0.00512626
-0.0021454
0.00698024
-0.00329829
0.00799132
-0.00449586
0.00837995
-0.00569097
0.00829204
-0.00685458
0.00780109
-0.00796349
0.00692652
-0.00899028
0.00565662
-0.00989472
0.00397029
-0.0106162
0.00185718
-0.0110675
-0.000660685
-0.0111345
-0.00350056
-0.0106824
-0.00648499
-0.00958554
-0.00929649
-0.00778866
-0.0114425
-0.00540942
-0.0122687
-0.00285222
-0.0111109
-0.000812702
-0.00769731
-0.00267987
-0.000327108
0.00248767
-0.00107146
0.00587061
-0.00204797
0.00795675
-0.0031291
0.00907244
-0.00423894
0.00948978
-0.0053389
0.00939199
-0.00641248
0.00887468
-0.00745225
0.00796629
-0.00844899
0.00665336
-0.00938194
0.00490325
-0.0102091
0.00268437
-0.0108558
-1.40634e-05
-0.0112086
-0.00314768
-0.0111076
-0.00658598
-0.0103644
-0.0100397
-0.00881634
-0.0129906
-0.00645095
-0.0146341
-0.00360104
-0.0139608
-0.00109134
-0.010207
-0.00377121
-0.00031368
0.00280134
-0.0010108
0.00656773
-0.00190056
0.0088465
-0.00285453
0.0100264
-0.00380361
0.0104389
-0.00472138
0.0103098
-0.00560709
0.00976039
-0.0064721
0.00883131
-0.00732925
0.00751051
-0.00818315
0.00575714
-0.00901949
0.00352071
-0.00979312
0.000759574
-0.0104081
-0.0025327
-0.0107061
-0.00628798
-0.0104565
-0.0102894
-0.00938893
-0.0140581
-0.00731272
-0.0167103
-0.00437966
-0.0168939
-0.00143554
-0.0131511
-0.00520675
-0.000316576
0.00311792
-0.000971356
0.00722251
-0.0017503
0.00962544
-0.0025234
0.0107995
-0.00323486
0.0111503
-0.00387716
0.0109521
-0.0044699
0.0103531
-0.00504594
0.00940735
-0.005642
0.00810658
-0.00629061
0.00640575
-0.00701079
0.0042409
-0.00779512
0.00154391
-0.00858903
-0.00173879
-0.00926419
-0.00561282
-0.00958712
-0.00996644
-0.00921008
-0.0144352
-0.00774849
-0.0181719
-0.00506375
-0.0195787
-0.00183472
-0.0163802
-0.00704147
-0.000364943
0.00348286
-0.00101149
0.00786905
-0.00166866
0.0102826
-0.00220785
0.0113387
-0.00260069
0.0115432
-0.00287056
0.0112219
-0.00306422
0.0105468
-0.00323845
0.00958158
-0.00345343
0.00832156
-0.00376796
0.00672027
-0.00423354
0.00470648
-0.00488448
0.00219485
-0.00571964
-0.000903638
-0.00667054
-0.00466191
-0.00755086
-0.00908613
-0.00799775
-0.0139883
-0.00746777
-0.0187019
-0.0054612
-0.0215852
-0.00225033
-0.019591
-0.00929181
-0.000507038
0.0039899
-0.00121522
0.00857723
-0.00174407
0.0108115
-0.00198371
0.0115783
-0.00196216
0.0115216
-0.00175294
0.0110127
-0.00143893
0.0102328
-0.00110277
0.00924543
-0.000825691
0.00804448
-0.000687758
0.00658235
-0.000766986
0.00478571
-0.00113506
0.00256292
-0.00184588
-0.000192818
-0.00290865
-0.00359913
-0.00423109
-0.0077637
-0.00551882
-0.0127005
-0.0061627
-0.018058
-0.00530857
-0.0224394
-0.00259319
-0.0223064
-0.011885
-0.000812447
0.00480235
-0.00167885
0.00944364
-0.00203646
0.0111691
-0.00185494
0.0113968
-0.00127571
0.0109424
-0.000449532
0.0101865
0.000495811
0.00928743
0.00145199
0.00828925
0.00232161
0.00717486
0.00301081
0.00589315
0.0034242
0.00437232
0.00346284
0.00252428
0.00302695
0.000243078
0.0020307
-0.00260288
0.000446851
-0.00617985
-0.00157906
-0.0106746
-0.00351389
-0.0161232
-0.0042621
-0.0216912
-0.00268984
-0.0238786
-0.0145748
-0.00134867
0.00615101
-0.00241794
0.0105129
-0.00238322
0.0111343
-0.00149184
0.0105054
-0.000100123
0.00955066
0.00154063
0.00854578
0.00326108
0.00756698
0.00493772
0.00661261
0.0064692
0.00564338
0.00776029
0.00460205
0.00871082
0.00342179
0.0092084
0.00202671
0.00912389
0.000327589
0.00831372
-0.00179271
0.00663884
-0.00450497
0.00405021
-0.00808599
0.000843644
-0.0129166
-0.0018843
-0.0189632
-0.00225587
-0.0235071
-0.0168307
-0.00213526
0.00828627
-0.00292103
0.0112987
-0.0016852
0.00989851
0.000537811
0.00828244
0.00311951
0.00696896
0.00576913
0.00589616
0.00833339
0.00500272
0.0107154
0.00423056
0.0128408
0.00351806
0.0146361
0.00280674
0.0160157
0.00204222
0.0168726
0.00116972
0.0170702
0.000130043
0.0164368
-0.00115928
0.0147571
-0.0028253
0.0117969
-0.00512583
0.00746524
-0.00858493
0.00244898
-0.0139469
-0.000883141
-0.020175
-0.0177139
-0.00248792
0.0107742
-1.26211e-05
0.00882338
0.00417757
0.00570832
0.00832781
0.0041322
0.0121229
0.00317386
0.0155316
0.00248751
0.0185543
0.00197994
0.0211965
0.00158838
0.0234544
0.00126015
0.0253051
0.000956108
0.0267013
0.000645975
0.0275658
0.000305209
0.027786
-9.01126e-05
0.0272023
-0.000575644
0.025578
-0.00120093
0.0225515
-0.0020993
0.017621
-0.00365445
0.0104026
-0.00672854
0.00247575
-0.0122481
-0.0152381
0.0107742
0.0195976
0.0253059
0.0294381
0.032612
0.0350995
0.0370794
0.0386678
0.0399279
0.040884
0.04153
0.0418352
0.0417451
0.0411695
0.0399685
0.0378692
0.0342148
0.0274862
0.0152381
)
;

boundaryField
{
    movingWall
    {
        type            calculated;
        value           uniform 0;
    }
    fixedWalls
    {
        type            calculated;
        value           uniform 0;
    }
    frontAndBack
    {
        type            empty;
    }
}


// ************************************************************************* //
