/*--------------------------------*- C++ -*----------------------------------*\
  =========                 |
  \\      /  F ield         | OpenFOAM: The Open Source CFD Toolbox
   \\    /   O peration     | Website:  https://openfoam.org
    \\  /    A nd           | Version:  13
     \\/     M anipulation  |
\*---------------------------------------------------------------------------*/
FoamFile
{
    format      ascii;
    class       volScalarField;
    location    "18";
    object      p;
}
// * * * * * * * * * * * * * * * * * * * * * * * * * * * * * * * * * * * * * //

dimensions      [0 2 -2 0 0 0 0];

internalField   nonuniform List<scalar> 
400
(
8.55159e-09
-0.000465069
-0.00101502
-0.00141408
-0.00155264
-0.0013881
-0.000903811
-9.76742e-05
0.00101414
0.00238598
0.003931
0.00551613
0.00697049
0.00811071
0.00878205
0.00890617
0.00852046
0.00779468
0.00701512
0.00650589
0.000469344
-1.17115e-05
-0.000489554
-0.000800927
-0.000888655
-0.000729303
-0.000309349
0.000376987
0.00132141
0.00249053
0.0038146
0.00518212
0.00644589
0.00744542
0.00804386
0.00817104
0.00785711
0.00724074
0.00654695
0.00602686
0.00104061
0.000431528
-7.44428e-05
-0.000359918
-0.00043507
-0.000305806
3.54084e-05
0.000600237
0.00139331
0.00239853
0.0035651
0.00479863
0.00596394
0.00690455
0.00747908
0.00760585
0.00729761
0.00666576
0.00589142
0.00521102
0.00143305
0.000644889
3.98588e-05
-0.000282727
-0.00039262
-0.000324802
-7.69889e-05
0.000371212
0.00104172
0.00193986
0.00303516
0.0042465
0.00543925
0.00644166
0.00708284
0.00724443
0.00690524
0.00615192
0.00515469
0.00419838
0.00143237
0.000459477
-0.000269245
-0.000664955
-0.000847669
-0.00087576
-0.000747792
-0.000430099
0.000121729
0.000940089
0.00201987
0.0032955
0.00462958
0.00582314
0.00665417
0.00693966
0.00659878
0.00568388
0.00437506
0.00305364
0.000864033
-0.000279341
-0.00113614
-0.00162788
-0.00191855
-0.00208411
-0.00211901
-0.00197126
-0.00156749
-0.000839531
0.000243808
0.00164346
0.00322603
0.00476151
0.00595716
0.00652973
0.00629627
0.00524344
0.00356301
0.00178182
-0.000422597
-0.00171332
-0.00269599
-0.00330419
-0.00374223
-0.0040996
-0.00436319
-0.00445836
-0.00427575
-0.0036994
-0.002644
-0.0010999
0.000823835
0.00287503
0.00467601
0.00579958
0.00589386
0.00481326
0.0027322
0.000380091
-0.00255281
-0.00396235
-0.00506649
-0.00581265
-0.00644422
-0.00706298
-0.00764752
-0.00809865
-0.00826481
-0.00796834
-0.00704554
-0.00540384
-0.00308909
-0.000345623
0.00236583
0.0044297
0.00523084
0.0043721
0.00192633
-0.00111499
-0.00561925
-0.00711449
-0.00833248
-0.00923585
-0.0101087
-0.0110677
-0.0120865
-0.0130434
-0.0137416
-0.013929
-0.0133364
-0.0117441
-0.00907589
-0.0055079
-0.00154875
0.00197228
0.00406451
0.00389277
0.00125088
-0.00257184
-0.00967402
-0.011217
-0.012532
-0.0135974
-0.0147448
-0.0161135
-0.0176806
-0.0193088
-0.0207584
-0.0216961
-0.0217236
-0.0204464
-0.0175951
-0.0131834
-0.00768157
-0.00210608
0.00207941
0.0033532
0.000918547
-0.00368281
-0.0147265
-0.0162727
-0.0176455
-0.0188402
-0.0202514
-0.0220563
-0.024249
-0.026688
-0.0290994
-0.0310694
-0.0320583
-0.0314611
-0.0287442
-0.0236437
-0.01645
-0.00825351
-0.00101415
0.00279486
0.00132548
-0.00383596
-0.0207555
-0.0222476
-0.0235937
-0.0248107
-0.0263894
-0.0285702
-0.0313809
-0.034689
-0.038197
-0.04142
-0.0436799
-0.0441495
-0.0419727
-0.036513
-0.0277044
-0.0164995
-0.00523529
0.00248008
0.00318733
-0.00191379
-0.0277497
-0.0290981
-0.0302477
-0.0312547
-0.0327709
-0.0351375
-0.0384318
-0.0425375
-0.0471403
-0.0516932
-0.055392
-0.057195
-0.0559244
-0.0505034
-0.0403589
-0.0260371
-0.00995506
0.00317579
0.007768
0.00400329
-0.0357995
-0.0368273
-0.0374501
-0.0378236
-0.0388726
-0.041084
-0.0445892
-0.0492795
-0.0548147
-0.0605841
-0.0656667
-0.0688284
-0.0685968
-0.0634622
-0.0522755
-0.0349423
-0.0135326
0.00650061
0.0171983
0.0170123
-0.0452945
-0.0455837
-0.0450465
-0.0440899
-0.0440764
-0.0456643
-0.0490104
-0.0539755
-0.0601594
-0.066863
-0.0730403
-0.0772774
-0.0778419
-0.0728472
-0.0606042
-0.0402813
-0.013187
0.0151747
0.0347545
0.0416341
-0.0572667
-0.0558325
-0.0529318
-0.0495825
-0.0477526
-0.0482014
-0.0510128
-0.0559375
-0.0624516
-0.0697177
-0.0765322
-0.0812888
-0.0820095
-0.0764774
-0.0625472
-0.0387047
-0.00526486
0.0330482
0.0649107
0.0834378
-0.0739666
-0.0686575
-0.0610666
-0.0537977
-0.0493356
-0.0482063
-0.0502141
-0.0548769
-0.0614591
-0.0689234
-0.0758648
-0.0804548
-0.080452
-0.0733017
-0.0564135
-0.0276303
0.0138021
0.0647351
0.113619
0.149284
-0.102437
-0.0864799
-0.069048
-0.0557799
-0.0480142
-0.0451315
-0.046325
-0.050723
-0.0572828
-0.0647234
-0.071431
-0.0753408
-0.0739312
-0.064261
-0.0431575
-0.00757843
0.0447345
0.113367
0.189706
0.256565
-0.174587
-0.113715
-0.0731821
-0.0518698
-0.0412918
-0.0374022
-0.0384828
-0.0431739
-0.0500633
-0.0576488
-0.0642169
-0.0675536
-0.0649091
-0.0529929
-0.0279668
0.0146192
0.0800745
0.174374
0.302028
0.450505
-0.354474
-0.154115
-0.06986
-0.0427069
-0.0314396
-0.0274312
-0.0290309
-0.0345257
-0.0421594
-0.0502759
-0.0570679
-0.0603182
-0.057279
-0.0445683
-0.017725
0.0293438
0.106307
0.231006
0.432457
0.733726
)
;

boundaryField
{
    movingWall
    {
        type            zeroGradient;
    }
    fixedWalls
    {
        type            zeroGradient;
    }
    frontAndBack
    {
        type            empty;
    }
}


// ************************************************************************* //
