/*--------------------------------*- C++ -*----------------------------------*\
  =========                 |
  \\      /  F ield         | OpenFOAM: The Open Source CFD Toolbox
   \\    /   O peration     | Website:  https://openfoam.org
    \\  /    A nd           | Version:  13
     \\/     M anipulation  |
\*---------------------------------------------------------------------------*/
FoamFile
{
    format      ascii;
    class       surfaceScalarField;
    location    "18";
    object      phi;
}
// * * * * * * * * * * * * * * * * * * * * * * * * * * * * * * * * * * * * * //

dimensions      [0 3 -1 0 0 0 0];

internalField   nonuniform List<scalar> 
760
(
2.333e-06
-2.33409e-06
-3.86585e-05
4.09915e-05
-0.000123786
8.51289e-05
-0.00023858
0.000114794
-0.000368519
0.00012994
-0.00050138
0.00013286
-0.000626482
0.000125102
-0.000733534
0.000107052
-0.000812087
7.85538e-05
-0.000852011
3.99252e-05
-0.000844986
-7.02425e-06
-0.000786767
-5.82197e-05
-0.000679578
-0.00010719
-0.000533859
-0.00014572
-0.000368377
-0.000165482
-0.000207962
-0.000160415
-7.87086e-05
-0.000129254
-1.24111e-06
-7.74672e-05
1.79591e-05
-1.92002e-05
1.79594e-05
-4.37906e-05
4.14571e-05
-0.00019077
0.000187973
-0.000429361
0.000323721
-0.000729774
0.000415207
-0.00106095
0.000461116
-0.00139446
0.000466374
-0.00170407
0.000434712
-0.00196444
0.000367425
-0.00215088
0.000264994
-0.00224082
0.000129861
-0.00221708
-3.07678e-05
-0.00207225
-0.00020305
-0.00181321
-0.000366232
-0.00146408
-0.000494848
-0.0010661
-0.000563461
-0.000672872
-0.000553642
-0.000340533
-0.000461593
-0.0001138
-0.0003042
-1.03362e-05
-0.000122662
7.62346e-06
-0.000100276
0.000141733
-0.000363563
0.000451262
-0.000748464
0.000708623
-0.0012111
0.000877838
-0.00170933
0.000959345
-0.00220424
0.00096129
-0.00265925
0.000889723
-0.00303897
0.000747142
-0.0033094
0.000535428
-0.00344013
0.000260595
-0.00340839
-6.25145e-05
-0.00320432
-0.000407123
-0.00283642
-0.000734125
-0.00233552
-0.000995748
-0.00175528
-0.00114371
-0.00116723
-0.00114169
-0.000649038
-0.000979782
-0.000266651
-0.000686585
-5.46178e-05
-0.000334693
-4.69943e-05
-0.000153423
0.000295158
-0.000528263
0.000826103
-0.00105116
0.00123152
-0.00166186
0.00148853
-0.00230851
0.00160599
-0.002945
0.00159778
-0.00352828
0.001473
-0.00401661
0.00123547
-0.00436968
0.000888501
-0.00455083
0.000441742
-0.00453128
-8.20634e-05
-0.00429593
-0.000642478
-0.00384979
-0.00118026
-0.00322384
-0.00162169
-0.00247802
-0.00188953
-0.00169836
-0.00192135
-0.000985199
-0.00169294
-0.000432069
-0.00123971
-0.00010037
-0.000666393
-0.000147364
-0.000201041
0.000496199
-0.00067781
0.00130287
-0.00132749
0.0018812
-0.00207372
0.00223477
-0.00285609
0.00238836
-0.0036236
0.00236529
-0.00432959
0.002179
-0.00492874
0.00183462
-0.00537624
0.001336
-0.00562944
0.000694942
-0.00565173
-5.97747e-05
-0.0054185
-0.000875708
-0.00492501
-0.00167375
-0.00419522
-0.00235148
-0.00328935
-0.00279539
-0.00230588
-0.00290482
-0.00137221
-0.00262661
-0.000620062
-0.00199186
-0.000150069
-0.00113639
-0.000297433
-0.000242497
0.000738696
-0.000808953
0.00186933
-0.00157128
0.00264353
-0.00243906
0.00310254
-0.00334505
0.00329435
-0.00423551
0.00325575
-0.00506271
0.0030062
-0.00578002
0.00255193
-0.00633972
0.00189569
-0.0066933
0.00104853
-0.00679439
4.13135e-05
-0.00660454
-0.00106556
-0.00610247
-0.00217583
-0.00529663
-0.00315733
-0.00423926
-0.00385276
-0.00303678
-0.00410731
-0.00184693
-0.00381646
-0.000852557
-0.00298624
-0.000211162
-0.00177778
-0.000508594
-0.000276934
0.00101563
-0.000918211
0.0025106
-0.00177546
0.00350077
-0.00274698
0.00407406
-0.00376086
0.00430823
-0.00476286
0.00425775
-0.00570662
0.00394995
-0.00654667
0.00339199
-0.00723442
0.00258343
-0.00771652
0.00153063
-0.00793623
0.000261015
-0.00783822
-0.00116357
-0.00737848
-0.00263556
-0.00654038
-0.00399543
-0.00535634
-0.0050368
-0.00393021
-0.00553343
-0.00244785
-0.00529881
-0.00115564
-0.00427845
-0.000292959
-0.00264046
-0.000801554
-0.000303153
0.00131878
-0.00100133
0.00320878
-0.00193118
0.00443062
-0.00298263
0.00512551
-0.00408124
0.00540685
-0.00517449
0.005351
-0.00621988
0.00499535
-0.00717606
0.00434817
-0.00799655
0.00340392
-0.008626
0.00216008
-0.00899916
0.000634174
-0.00904373
-0.00111901
-0.00868925
-0.00299004
-0.00788489
-0.00479979
-0.00662796
-0.00629373
-0.00500109
-0.0071603
-0.00320495
-0.00709495
-0.0015555
-0.0059279
-0.000405928
-0.00379004
-0.00120748
-0.000320118
0.0016389
-0.0010544
0.00394306
-0.00202954
0.00540576
-0.00312941
0.00622538
-0.00427895
0.00655638
-0.00542934
0.0065014
-0.00654462
0.00611062
-0.00759082
0.00539437
-0.00852783
0.00434093
-0.00930329
0.00293554
-0.00984871
0.00117959
-0.0100791
-0.000888642
-0.00989849
-0.00317062
-0.00921618
-0.0054821
-0.00797842
-0.00753149
-0.00621989
-0.00891883
-0.00412672
-0.00918812
-0.00207414
-0.00798048
-0.00056156
-0.00530262
-0.00176905
-0.000327913
0.00196681
-0.00107617
0.00469132
-0.00206499
0.00639457
-0.00317359
0.00733398
-0.00432767
0.00771046
-0.00548403
0.00765776
-0.00661577
0.00724236
-0.0077
0.0064786
-0.0087081
0.00534903
-0.0095976
0.00382503
-0.0103054
0.00188743
-0.0107432
-0.000450863
-0.0107974
-0.00311647
-0.0103385
-0.00594092
-0.00925063
-0.00861939
-0.00749023
-0.0106792
-0.00518214
-0.0114962
-0.0027218
-0.0104408
-0.00077198
-0.00725243
-0.00254102
-0.000329174
0.00229599
-0.00107144
0.00543359
-0.00204046
0.00736359
-0.00311088
0.0084044
-0.00421048
0.00881007
-0.00530376
0.00875104
-0.00637554
0.00831414
-0.00741764
0.00752072
-0.00841824
0.00634963
-0.00935252
0.00475931
-0.0101737
0.00270856
-0.0108036
0.000179066
-0.011126
-0.00279403
-0.0109849
-0.00608207
-0.0102017
-0.00940255
-0.00863094
-0.01225
-0.00627852
-0.0138486
-0.00348392
-0.0132354
-0.00104832
-0.00968804
-0.00358934
-0.000331117
0.00262711
-0.00105536
0.00615783
-0.00197325
0.00828148
-0.0029537
0.00938485
-0.00392898
0.00978535
-0.0048745
0.00969656
-0.00578997
0.00922961
-0.00668524
0.008416
-0.00756976
0.00723415
-0.00844317
0.00563272
-0.00928529
0.00355069
-0.0100441
0.000937876
-0.0106205
-0.00221763
-0.010855
-0.00584758
-0.0105242
-0.00973336
-0.00937496
-0.0133992
-0.00724237
-0.0159812
-0.00430202
-0.0161758
-0.00139646
-0.0125936
-0.0049858
-0.00034848
0.00297558
-0.00105861
0.00686796
-0.00190068
0.00912355
-0.00273679
0.010221
-0.00350947
0.010558
-0.00421116
0.0103983
-0.00486084
0.00987929
-0.00548936
0.00904452
-0.00613005
0.00787485
-0.0068109
0.00631356
-0.00754548
0.00428527
-0.00832022
0.00171262
-0.00907508
-0.00146277
-0.0096779
-0.00524477
-0.00989689
-0.00951438
-0.00939599
-0.0139001
-0.00781573
-0.0175615
-0.00505271
-0.0189388
-0.00180829
-0.015838
-0.00679409
-0.000408171
0.00338375
-0.00113326
0.00759305
-0.00188318
0.00987347
-0.00251649
0.0108543
-0.00299944
0.011041
-0.00335282
0.0107516
-0.00362131
0.0101478
-0.00385936
0.00928258
-0.0041245
0.00813998
-0.00447266
0.00666173
-0.00495234
0.00476495
-0.00559432
0.0023546
-0.0063932
-0.000663885
-0.00727561
-0.00436236
-0.00805163
-0.00873836
-0.00836102
-0.0135907
-0.00767644
-0.0182461
-0.0055334
-0.0210818
-0.00224659
-0.0191248
-0.00904069
-0.000555948
0.0039397
-0.00135635
0.00839344
-0.0019972
0.0105143
-0.0023519
0.011209
-0.00243921
0.0111283
-0.00232707
0.0106395
-0.00209465
0.00991536
-0.00182205
0.00900998
-0.00158886
0.00790679
-0.00147451
0.00654738
-0.00155722
0.00484766
-0.00190905
0.00270643
-0.00258336
1.04221e-05
-0.00358636
-0.00335936
-0.00482017
-0.00750454
-0.00598496
-0.0124259
-0.00647435
-0.0177567
-0.00545808
-0.0220981
-0.00262063
-0.0219623
-0.0116613
-0.000858267
0.00479797
-0.00181624
0.00935141
-0.00228945
0.0109875
-0.00222918
0.0111487
-0.00176447
0.0106636
-0.0010379
0.00991292
-0.000172072
0.00904954
0.000727595
0.00811031
0.00156466
0.00706973
0.00224432
0.00586771
0.00266863
0.00442335
0.00273509
0.00263997
0.00234071
0.000404798
0.00139854
-0.00241719
-0.000115475
-0.00599053
-0.002048
-0.0104934
-0.0038582
-0.0159465
-0.00445641
-0.0214999
-0.00274749
-0.0236712
-0.0144088
-0.00137915
0.00617712
-0.00252124
0.0104935
-0.00258535
0.0110516
-0.0018032
0.0103665
-0.000517591
0.00937797
0.00102987
0.00836546
0.0026764
0.007403
0.00430233
0.00648439
0.00580784
0.00556422
0.00709671
0.00457885
0.00806572
0.00345434
0.00859818
0.00210752
0.00856003
0.000442943
0.0078032
-0.00166037
0.00618692
-0.00437426
0.00366565
-0.00797214
0.000544809
-0.0128256
-0.00207438
-0.0188807
-0.0023231
-0.0234225
-0.0167319
-0.00213917
0.00831629
-0.00296234
0.0113167
-0.00178992
0.00987922
0.000352821
0.0082238
0.00284877
0.00688202
0.00541707
0.00579716
0.00791237
0.0049077
0.0102436
0.00415314
0.0123402
0.00346762
0.0141291
0.00278993
0.0155226
0.00206083
0.016411
0.00121918
0.0166532
0.000200692
0.0160728
-0.00107994
0.0144497
-0.00275114
0.0115447
-0.00506715
0.00726744
-0.00854838
0.00231367
-0.0139269
-0.000943343
-0.0201655
-0.0176753
-0.00247222
0.0107885
2.34235e-06
0.0088421
0.0041716
0.00570996
0.00827896
0.00411644
0.012017
0.00314397
0.0153635
0.0024507
0.0183266
0.0019446
0.0209189
0.00156081
0.0231419
0.00124461
0.0249772
0.000954652
0.0263802
0.000657821
0.0272717
0.000327653
0.0275319
-5.94927e-05
0.0269953
-0.000543322
0.0254164
-0.00117223
0.0224322
-0.00208294
0.0175359
-0.00365207
0.0103435
-0.00673455
0.00243873
-0.0122607
-0.0152365
0.0107885
0.0196306
0.0253406
0.029457
0.032601
0.0350517
0.0369963
0.0385571
0.0398017
0.0407564
0.0414142
0.0417418
0.0416823
0.041139
0.0399668
0.0378838
0.0342318
0.0274972
0.0152365
)
;

boundaryField
{
    movingWall
    {
        type            calculated;
        value           uniform 0;
    }
    fixedWalls
    {
        type            calculated;
        value           uniform 0;
    }
    frontAndBack
    {
        type            empty;
    }
}


// ************************************************************************* //
