/*--------------------------------*- C++ -*----------------------------------*\
  =========                 |
  \\      /  F ield         | OpenFOAM: The Open Source CFD Toolbox
   \\    /   O peration     | Website:  https://openfoam.org
    \\  /    A nd           | Version:  13
     \\/     M anipulation  |
\*---------------------------------------------------------------------------*/
FoamFile
{
    format      ascii;
    class       surfaceScalarField;
    location    "18";
    object      phi_0;
}
// * * * * * * * * * * * * * * * * * * * * * * * * * * * * * * * * * * * * * //

dimensions      [0 3 -1 0 0 0 0];

internalField   nonuniform List<scalar> 
760
(
2.04514e-06
-2.04684e-06
-3.85887e-05
4.06339e-05
-0.000122631
8.4044e-05
-0.000235806
0.000113176
-0.000363793
0.000127988
-0.000494536
0.000130742
-0.000617528
0.000122992
-0.000722688
0.000105161
-0.000799824
7.71371e-05
-0.000839074
3.92512e-05
-0.000832337
-6.73675e-06
-0.000775459
-5.68791e-05
-0.000670558
-0.000104901
-0.000527745
-0.000142814
-0.000365265
-0.00016248
-0.000207357
-0.000157909
-7.9629e-05
-0.000127727
-2.51685e-06
-7.71118e-05
1.72332e-05
-1.97501e-05
1.72335e-05
-4.32983e-05
4.12523e-05
-0.000188106
0.000185444
-0.000423041
0.000318982
-0.000718711
0.000408846
-0.00104451
0.000453783
-0.00137244
0.000458678
-0.00167675
0.000427298
-0.00193262
0.000361036
-0.00211594
0.000260453
-0.00220465
0.000127966
-0.00218196
-2.943e-05
-0.00204053
-0.000198308
-0.00178694
-0.000358494
-0.0014446
-0.000485157
-0.00105371
-0.00055337
-0.000666722
-0.000544891
-0.000338823
-0.000455627
-0.000114278
-0.000301657
-1.10727e-05
-0.000122954
6.16045e-06
-9.86427e-05
0.000139896
-0.000357577
0.000444381
-0.000736051
0.000697458
-0.00119089
0.000863687
-0.00168063
0.000943522
-0.00216701
0.000945055
-0.00261412
0.000874406
-0.00298731
0.00073423
-0.00325335
0.000526502
-0.0033825
0.000257114
-0.0033524
-5.95347e-05
-0.00315326
-0.000397451
-0.00279317
-0.000718579
-0.00230206
-0.000976269
-0.00173228
-0.00112316
-0.00115386
-0.0011233
-0.000643132
-0.000966358
-0.000265238
-0.000679549
-5.48621e-05
-0.000333329
-4.87022e-05
-0.000150606
0.000290504
-0.000518862
0.00081264
-0.00103266
0.00121125
-0.00163278
0.00146381
-0.00226824
0.00157898
-0.00289372
0.00157053
-0.00346696
0.00144765
-0.00394711
0.00121438
-0.00429468
0.000874073
-0.00447373
0.000436165
-0.00445596
-7.73058e-05
-0.00422635
-0.000627062
-0.00378955
-0.00115538
-0.00317563
-0.00159018
-0.00244315
-0.00185564
-0.00167638
-0.00189007
-0.000973943
-0.0016688
-0.000428088
-0.0012254
-9.99204e-05
-0.000661498
-0.000148623
-0.000197191
0.000487695
-0.000665474
0.00128092
-0.00130382
0.00184959
-0.00203723
0.00219722
-0.00280629
0.00234804
-0.00356085
0.0023251
-0.00425514
0.00214194
-0.00484468
0.00180392
-0.00528553
0.00131492
-0.00553578
0.000686414
-0.00555933
-5.37488e-05
-0.0053318
-0.000854595
-0.00484824
-0.00163895
-0.00413189
-0.00230653
-0.00324168
-0.00274585
-0.00227422
-0.00285752
-0.00135475
-0.00258827
-0.000613052
-0.0019671
-0.00014881
-0.00112574
-0.000297433
-0.000237928
0.000725623
-0.000794627
0.00183762
-0.00154417
0.00259913
-0.0023977
0.00305075
-0.00328906
0.0032394
-0.00416537
0.00320141
-0.00497973
0.0029563
-0.00568634
0.00251052
-0.00623825
0.00186684
-0.00658771
0.00103586
-0.00668889
4.74293e-05
-0.00650374
-0.00103975
-0.00601106
-0.00213163
-0.00521894
-0.00309865
-0.00417864
-0.00378614
-0.00299477
-0.0040414
-0.00182254
-0.0037605
-0.000842072
-0.00294757
-0.000208963
-0.00175885
-0.000506396
-0.000272109
0.000997731
-0.000903255
0.00246876
-0.00174733
0.00344321
-0.00270429
0.0040077
-0.00370328
0.00423839
-0.00469089
0.00418903
-0.00562148
0.00388689
-0.0064503
0.00333934
-0.00712941
0.00254595
-0.00760612
0.00151258
-0.00782427
0.000265569
-0.00772906
-0.00113495
-0.00727692
-0.00258377
-0.00645134
-0.00392423
-0.00528426
-0.00495321
-0.00387814
-0.00544752
-0.0024162
-0.00522244
-0.00114128
-0.00422248
-0.000289657
-0.00261047
-0.000796053
-0.000298655
0.00129639
-0.000987423
0.00315753
-0.00190503
0.00436082
-0.00294293
0.0050456
-0.00402769
0.00532316
-0.00510753
0.00526886
-0.00614056
0.00491992
-0.00708593
0.00428471
-0.00789764
0.00335766
-0.00852083
0.00213575
-0.00889073
0.000635462
-0.00893562
-0.00109006
-0.00858574
-0.00293365
-0.00779089
-0.00471908
-0.00654867
-0.00619543
-0.00494107
-0.00705511
-0.00316657
-0.00699694
-0.00153714
-0.00585191
-0.000401365
-0.00374625
-0.00119742
-0.00031659
0.00161298
-0.00104337
0.00388432
-0.0020086
0.00532605
-0.00309743
0.00613442
-0.00423564
0.00646137
-0.00537507
0.0064083
-0.00648019
0.00602503
-0.00751734
0.00532187
-0.00844664
0.00428696
-0.0092159
0.00290501
-0.00975689
0.00117646
-0.00998506
-0.000861897
-0.00980525
-0.00311345
-0.00912771
-0.00539662
-0.00789983
-0.00742332
-0.00615683
-0.00879811
-0.00408378
-0.00906998
-0.00205222
-0.00788348
-0.00055566
-0.00524281
-0.00175308
-0.000325974
0.00193895
-0.00106978
0.00462813
-0.0020524
0.00630867
-0.0031539
0.00723591
-0.00430066
0.00760813
-0.00545
0.00755764
-0.00657531
0.00715034
-0.00765379
0.00640035
-0.00865673
0.00528989
-0.00954147
0.00378975
-0.0102448
0.00187982
-0.0106785
-0.000428212
-0.0107295
-0.00306247
-0.0102696
-0.00585653
-0.00918441
-0.00850849
-0.00743241
-0.0105501
-0.00513917
-0.0113632
-0.00269783
-0.0103248
-0.00076485
-0.00717579
-0.00251793
-0.000329311
0.00226826
-0.00107108
0.00536989
-0.00203873
0.00727632
-0.00310719
0.00830437
-0.00420472
0.00870566
-0.00529617
0.0086491
-0.00636653
0.0082207
-0.00740749
0.00744131
-0.00840683
0.00628923
-0.00933919
0.00472211
-0.0101572
0.00269781
-0.0107824
0.000196965
-0.0110985
-0.00274631
-0.0109504
-0.0060046
-0.0101617
-0.00929725
-0.0085895
-0.0121223
-0.00624262
-0.0137101
-0.00346088
-0.0131066
-0.00104039
-0.00959628
-0.00355832
-0.000333571
0.00260183
-0.00106174
0.00609806
-0.00198374
0.00819832
-0.0029681
0.00928873
-0.00394723
0.00968479
-0.00489677
0.00959864
-0.00581642
0.00914035
-0.00671573
0.00834063
-0.00760353
0.00717703
-0.00847865
0.00559723
-0.00932002
0.00353917
-0.0100748
0.000951713
-0.0106433
-0.00217774
-0.0108666
-0.00578137
-0.0105226
-0.00964122
-0.00936141
-0.0132835
-0.00722233
-0.0158492
-0.00428446
-0.0160444
-0.00138865
-0.0124921
-0.00494698
-0.00035316
0.00295499
-0.00107156
0.00681646
-0.00192317
0.00904993
-0.00276902
0.0101346
-0.0035514
0.0104672
-0.00426272
0.01031
-0.00492177
0.00979941
-0.00555896
0.00897782
-0.00620693
0.007825
-0.00689277
0.00628307
-0.00762907
0.00427547
-0.00840125
0.00172389
-0.00914844
-0.00143055
-0.00973815
-0.00519166
-0.00993925
-0.00944012
-0.00941802
-0.0138047
-0.00781944
-0.0174478
-0.00504603
-0.0188178
-0.00180214
-0.015736
-0.00674911
-0.000414589
0.00336958
-0.00115148
0.00755334
-0.00191553
0.00981398
-0.00256354
0.0107826
-0.00306106
0.0109647
-0.00342848
0.0106774
-0.0037101
0.010081
-0.00395984
0.00922756
-0.00423454
0.0080997
-0.00458942
0.00663795
-0.00507218
0.00475825
-0.00571285
0.00236456
-0.00650523
-0.000638165
-0.00737523
-0.00432166
-0.00813262
-0.00868273
-0.00841797
-0.0135194
-0.0077071
-0.0181586
-0.0055419
-0.020983
-0.00224417
-0.0190337
-0.00899329
-0.000563164
0.00393274
-0.00137735
0.00836752
-0.00203517
0.0104718
-0.00240778
0.0111552
-0.00251271
0.0110696
-0.00241712
0.0105818
-0.00219953
0.00986345
-0.00193947
0.00896749
-0.00171599
0.00787622
-0.00160805
0.00653002
-0.00169353
0.00484372
-0.0020442
0.00271523
-0.00271307
3.07094e-05
-0.00370578
-0.00332895
-0.00492361
-0.0074649
-0.00606603
-0.0123769
-0.0065275
-0.0176972
-0.00548239
-0.0220282
-0.00262401
-0.0218921
-0.0116173
-0.000864855
0.0047976
-0.00183628
0.00933895
-0.00232671
0.0109622
-0.00228501
0.0111135
-0.00183856
0.0106232
-0.00112882
0.00987206
-0.000277544
0.00901217
0.000610445
0.0080795
0.00143914
0.00704752
0.00211395
0.00585521
0.00253688
0.0044208
0.00260525
0.00264687
0.00221587
0.000420081
0.00128189
-0.00239497
-0.000220082
-0.00596293
-0.00213541
-0.0104616
-0.00392215
-0.0159104
-0.00449191
-0.0214584
-0.00275715
-0.0236269
-0.0143744
-0.00138328
0.00618087
-0.00253575
0.0104914
-0.00261414
0.0110406
-0.00184821
0.0103476
-0.000579005
0.00935397
0.000953236
0.00833982
0.00258673
0.00737868
0.00420247
0.00646376
0.00570106
0.00554893
0.00698638
0.0045699
0.00795497
0.0034522
0.00848978
0.00211206
0.00845634
0.000453519
0.00770631
-0.00164495
0.00609903
-0.00435566
0.00358975
-0.00795233
0.000485648
-0.0128063
-0.00211182
-0.0188609
-0.0023358
-0.0234029
-0.0167103
-0.00213938
0.00832025
-0.00296759
0.0113196
-0.00180395
0.00987698
0.000327314
0.00821629
0.00281064
0.00687064
0.00536657
0.00578389
0.00785082
0.00489442
0.0101731
0.00414144
0.0122635
0.00345858
0.0140491
0.00278433
0.0154418
0.00205942
0.0163317
0.00122216
0.0165776
0.000207636
0.0160028
-0.00107007
0.0143872
-0.0027401
0.0114914
-0.00505656
0.00722485
-0.00853975
0.00228468
-0.0139208
-0.000955745
-0.0201624
-0.017666
-0.00247001
0.0107903
4.76642e-06
0.00884486
0.00417133
0.00571042
0.00827266
0.00411496
0.0120028
0.00314049
0.0153408
0.0024459
0.0182956
0.00193959
0.0208806
0.00155645
0.0230977
0.00124153
0.0249288
0.000953238
0.02633
0.000658217
0.0272224
0.000329743
0.0274858
-5.58072e-05
0.0269541
-0.00053837
0.0253809
-0.00116692
0.0224036
-0.00207919
0.0175145
-0.00365068
0.0103289
-0.00673513
0.00242963
-0.0122632
-0.0152364
0.0107903
0.0196351
0.0253455
0.0294605
0.032601
0.0350469
0.0369865
0.0385429
0.0397845
0.0407377
0.0413959
0.0417257
0.0416699
0.0411315
0.0399646
0.0378854
0.0342347
0.0274996
0.0152364
)
;

boundaryField
{
    movingWall
    {
        type            calculated;
        value           uniform 0;
    }
    fixedWalls
    {
        type            calculated;
        value           uniform 0;
    }
    frontAndBack
    {
        type            empty;
    }
}


// ************************************************************************* //
