/*--------------------------------*- C++ -*----------------------------------*\
  =========                 |
  \\      /  F ield         | OpenFOAM: The Open Source CFD Toolbox
   \\    /   O peration     | Website:  https://openfoam.org
    \\  /    A nd           | Version:  13
     \\/     M anipulation  |
\*---------------------------------------------------------------------------*/
FoamFile
{
    format      ascii;
    class       volVectorField;
    location    "18";
    object      U;
}
// * * * * * * * * * * * * * * * * * * * * * * * * * * * * * * * * * * * * * //

dimensions      [0 1 -1 0 0 0 0];

internalField   nonuniform List<vector> 
400
(
(0.00014512 -0.000147998 0)
(-0.000182438 5.68208e-05 0)
(-0.00147543 0.00027396 0)
(-0.00353118 0.00041298 0)
(-0.00603664 0.000484848 0)
(-0.00871644 0.000508252 0)
(-0.0113435 0.000492748 0)
(-0.0137106 0.00043885 0)
(-0.01561 0.000342225 0)
(-0.0168317 0.00019953 0)
(-0.0171841 1.4414e-05 0)
(-0.0165328 -0.000197822 0)
(-0.0148505 -0.000408091 0)
(-0.0122609 -0.000576426 0)
(-0.00906048 -0.000660257 0)
(-0.00569845 -0.000627203 0)
(-0.00270685 -0.00046812 0)
(-0.000580649 -0.000205954 0)
(0.000387117 8.92305e-05 0)
(0.000262555 0.000256667 0)
(-6.81755e-05 0.000179737 0)
(-0.00190399 0.00179472 0)
(-0.00584327 0.00343552 0)
(-0.0113799 0.00456071 0)
(-0.0178419 0.00514179 0)
(-0.0246216 0.005249 0)
(-0.0311765 0.00493469 0)
(-0.036994 0.00421381 0)
(-0.0415703 0.00308483 0)
(-0.0444222 0.00156629 0)
(-0.0451356 -0.000265755 0)
(-0.0434467 -0.00225143 0)
(-0.0393357 -0.00414233 0)
(-0.0331072 -0.00562782 0)
(-0.0254239 -0.00639589 0)
(-0.0172626 -0.00622134 0)
(-0.00976944 -0.00506043 0)
(-0.00401896 -0.00312609 0)
(-0.000702093 -0.000951033 0)
(0.000165913 0.000433516 0)
(-0.000339327 0.00161112 0)
(-0.00401089 0.00587669 0)
(-0.0106239 0.00965011 0)
(-0.0193186 0.0121895 0)
(-0.0291372 0.0134534 0)
(-0.0392592 0.013561 0)
(-0.0489372 0.0126064 0)
(-0.0574539 0.0106263 0)
(-0.064109 0.0076423 0)
(-0.0682435 0.00373498 0)
(-0.0693046 -0.000882287 0)
(-0.0669434 -0.00581387 0)
(-0.0611278 -0.0104781 0)
(-0.0522422 -0.0141657 0)
(-0.0411391 -0.016169 0)
(-0.0291024 -0.0159729 0)
(-0.0176852 -0.0134657 0)
(-0.00841417 -0.00911073 0)
(-0.00241635 -0.00403641 0)
(-1.2588e-05 -0.000196182 0)
(-0.000582687 0.00416125 0)
(-0.00602374 0.0122917 0)
(-0.015194 0.01878 0)
(-0.0268186 0.0229911 0)
(-0.0396519 0.0249794 0)
(-0.0527131 0.0249478 0)
(-0.0651254 0.0230417 0)
(-0.0760451 0.0193244 0)
(-0.0846448 0.0138498 0)
(-0.0901387 0.006778 0)
(-0.0918503 -0.00151226 0)
(-0.0893156 -0.0103483 0)
(-0.0824094 -0.0187542 0)
(-0.0714737 -0.0255338 0)
(-0.0574142 -0.029467 0)
(-0.0417144 -0.0296159 0)
(-0.0263034 -0.0256906 0)
(-0.0132367 -0.0183637 0)
(-0.00425087 -0.00940367 0)
(-0.000166515 -0.00172356 0)
(-0.000792519 0.00772738 0)
(-0.00783866 0.020854 0)
(-0.0193606 0.030566 0)
(-0.0336746 0.0366249 0)
(-0.0492607 0.039329 0)
(-0.0650147 0.0390299 0)
(-0.0799854 0.0359464 0)
(-0.0932624 0.0301691 0)
(-0.10394 0.0217763 0)
(-0.11113 0.0109941 0)
(-0.114018 -0.00164909 0)
(-0.111965 -0.0152123 0)
(-0.104643 -0.0283095 0)
(-0.0922104 -0.0391936 0)
(-0.0754843 -0.0459986 0)
(-0.0560544 -0.0471639 0)
(-0.0362406 -0.0420014 0)
(-0.0187857 -0.031243 0)
(-0.0062957 -0.0172979 0)
(-0.000308809 -0.00418712 0)
(-0.0009696 0.0121869 0)
(-0.00941982 0.0313375 0)
(-0.0230235 0.044751 0)
(-0.0397385 0.0528295 0)
(-0.0578069 0.0562651 0)
(-0.0760401 0.0556388 0)
(-0.0934611 0.0512721 0)
(-0.109144 0.043281 0)
(-0.122146 0.0317422 0)
(-0.131498 0.0169024 0)
(-0.13623 -0.000618524 0)
(-0.135464 -0.0196679 0)
(-0.128561 -0.0384765 0)
(-0.115336 -0.0547031 0)
(-0.0963382 -0.0656803 0)
(-0.0731197 -0.068941 0)
(-0.0483609 -0.0630361 0)
(-0.0256564 -0.0484589 0)
(-0.00883186 -0.0282148 0)
(-0.000479304 -0.00772592 0)
(-0.00111089 0.0174087 0)
(-0.01073 0.0434748 0)
(-0.026079 0.0610249 0)
(-0.0448295 0.0713023 0)
(-0.0650345 0.075533 0)
(-0.0854639 0.07461 0)
(-0.105163 0.0689929 0)
(-0.12324 0.058818 0)
(-0.138766 0.0441207 0)
(-0.150718 0.0250978 0)
(-0.157982 0.00236363 0)
(-0.159406 -0.0228226 0)
(-0.153947 -0.0483897 0)
(-0.140921 -0.0714057 0)
(-0.12039 -0.0882591 0)
(-0.0936215 -0.0952307 0)
(-0.0634943 -0.0895794 0)
(-0.0345354 -0.0710268 0)
(-0.0122189 -0.0429819 0)
(-0.000726187 -0.0126546 0)
(-0.00121088 0.0232413 0)
(-0.0117223 0.0569413 0)
(-0.0284034 0.0789938 0)
(-0.0487172 0.0916396 0)
(-0.0705783 0.0967633 0)
(-0.0927579 0.0956537 0)
(-0.11437 0.0889477 0)
(-0.134614 0.0767995 0)
(-0.152631 0.0591601 0)
(-0.167411 0.0360906 0)
(-0.177739 0.00807645 0)
(-0.182216 -0.0236688 0)
(-0.17936 -0.0569214 0)
(-0.16787 -0.0882488 0)
(-0.147075 -0.113031 0)
(-0.117602 -0.125958 0)
(-0.0821578 -0.12231 0)
(-0.0460644 -0.100159 0)
(-0.0168612 -0.0627689 0)
(-0.00110909 -0.0194901 0)
(-0.00126555 0.0295084 0)
(-0.0123568 0.0713496 0)
(-0.0298798 0.0981645 0)
(-0.051159 0.113297 0)
(-0.0740133 0.119402 0)
(-0.097253 0.11825 0)
(-0.120106 0.110702 0)
(-0.141922 0.0969388 0)
(-0.161989 0.0767932 0)
(-0.179399 0.0501097 0)
(-0.192947 0.0171108 0)
(-0.201083 -0.0212201 0)
(-0.201954 -0.0627303 0)
(-0.193604 -0.103702 0)
(-0.17443 -0.138604 0)
(-0.14399 -0.160324 0)
(-0.104202 -0.161424 0)
(-0.0606711 -0.137026 0)
(-0.0231883 -0.089036 0)
(-0.00170748 -0.0289729 0)
(-0.00127901 0.0360202 0)
(-0.0126345 0.0862637 0)
(-0.0304571 0.117945 0)
(-0.0519809 0.135567 0)
(-0.0749587 0.142659 0)
(-0.098272 0.141564 0)
(-0.121306 0.13343 0)
(-0.14362 0.118491 0)
(-0.164737 0.0964521 0)
(-0.183972 0.0668846 0)
(-0.200283 0.0296336 0)
(-0.212159 -0.0147407 0)
(-0.217555 -0.0644391 0)
(-0.213977 -0.115812 0)
(-0.198814 -0.162754 0)
(-0.170163 -0.196433 0)
(-0.128363 -0.206108 0)
(-0.0782974 -0.182322 0)
(-0.031609 -0.123382 0)
(-0.00263167 -0.0420887 0)
(-0.0012732 0.0426077 0)
(-0.0126472 0.101247 0)
(-0.0302344 0.137674 0)
(-0.0511926 0.15758 0)
(-0.0732253 0.165484 0)
(-0.0953203 0.164403 0)
(-0.117067 0.155847 0)
(-0.138293 0.140157 0)
(-0.158844 0.116932 0)
(-0.178383 0.0854611 0)
(-0.196223 0.0451434 0)
(-0.211133 -0.00404392 0)
(-0.221181 -0.0609535 0)
(-0.223616 -0.122469 0)
(-0.214981 -0.182512 0)
(-0.191719 -0.231057 0)
(-0.151811 -0.253966 0)
(-0.0979903 -0.235597 0)
(-0.0423879 -0.167209 0)
(-0.00403391 -0.060074 0)
(-0.00130234 0.049192 0)
(-0.0126449 0.115952 0)
(-0.0295651 0.156685 0)
(-0.0491182 0.178341 0)
(-0.0689758 0.186584 0)
(-0.0882926 0.185224 0)
(-0.106926 0.17622 0)
(-0.125037 0.160084 0)
(-0.142861 0.136366 0)
(-0.160524 0.104115 0)
(-0.177854 0.0622887 0)
(-0.194169 0.0102005 0)
(-0.208002 -0.051892 0)
(-0.216803 -0.1219 0)
(-0.216704 -0.194582 0)
(-0.202688 -0.259755 0)
(-0.169911 -0.300614 0)
(-0.11742 -0.294423 0)
(-0.0553874 -0.22111 0)
(-0.00611517 -0.0843697 0)
(-0.00147621 0.0559035 0)
(-0.0131269 0.130262 0)
(-0.0291697 0.1744 0)
(-0.0465078 0.196783 0)
(-0.0628378 0.204474 0)
(-0.0776107 0.202209 0)
(-0.0910591 0.192467 0)
(-0.103746 0.175987 0)
(-0.116351 0.152346 0)
(-0.129517 0.120434 0)
(-0.143691 0.0788493 0)
(-0.158922 0.0262761 0)
(-0.174548 -0.0380148 0)
(-0.188747 -0.113341 0)
(-0.19795 -0.196146 0)
(-0.196362 -0.277536 0)
(-0.176475 -0.339793 0)
(-0.132532 -0.353682 0)
(-0.0696386 -0.2839 0)
(-0.00911668 -0.116441 0)
(-0.00200177 0.0632748 0)
(-0.0149668 0.144474 0)
(-0.0302331 0.190411 0)
(-0.044562 0.211799 0)
(-0.0558583 0.217516 0)
(-0.0641351 0.213352 0)
(-0.0701809 0.202312 0)
(-0.0750464 0.185377 0)
(-0.0798759 0.162194 0)
(-0.0858202 0.131592 0)
(-0.0939447 0.0919453 0)
(-0.105083 0.0414649 0)
(-0.11957 -0.0214611 0)
(-0.136765 -0.0976601 0)
(-0.154226 -0.185879 0)
(-0.166542 -0.280062 0)
(-0.16456 -0.364255 0)
(-0.137578 -0.405436 0)
(-0.0827758 -0.351445 0)
(-0.0132407 -0.15731 0)
(-0.00324162 0.0725311 0)
(-0.0195595 0.159491 0)
(-0.0343905 0.204479 0)
(-0.0446727 0.222163 0)
(-0.0490237 0.223875 0)
(-0.0485169 0.216486 0)
(-0.0447686 0.20341 0)
(-0.0394135 0.185772 0)
(-0.0340517 0.163271 0)
(-0.030269 0.134738 0)
(-0.0296417 0.098471 0)
(-0.0336882 0.0524407 0)
(-0.04372 -0.00554227 0)
(-0.0604788 -0.0775458 0)
(-0.0833287 -0.164721 0)
(-0.108635 -0.265011 0)
(-0.127494 -0.367314 0)
(-0.125529 -0.439757 0)
(-0.0904394 -0.415816 0)
(-0.0183276 -0.206732 0)
(-0.0056986 0.0860738 0)
(-0.0288016 0.176901 0)
(-0.0431648 0.216157 0)
(-0.0471904 0.226058 0)
(-0.0414958 0.221139 0)
(-0.0290738 0.20906 0)
(-0.0126978 0.19326 0)
(0.00535442 0.174757 0)
(0.0230963 0.153184 0)
(0.038648 0.127374 0)
(0.0501085 0.0956618 0)
(0.0554903 0.0560218 0)
(0.0527298 0.00609615 0)
(0.039842 -0.0568364 0)
(0.0154435 -0.135755 0)
(-0.019717 -0.232796 0)
(-0.0594107 -0.344333 0)
(-0.0884605 -0.446225 0)
(-0.0857798 -0.465499 0)
(-0.0231742 -0.262675 0)
(-0.00991658 0.109022 0)
(-0.0441498 0.198656 0)
(-0.055097 0.223308 0)
(-0.0467555 0.219603 0)
(-0.0249907 0.205226 0)
(0.00414711 0.187431 0)
(0.0366553 0.168833 0)
(0.0698124 0.149879 0)
(0.101509 0.129913 0)
(0.129849 0.107717 0)
(0.152887 0.0817409 0)
(0.168468 0.0501604 0)
(0.17412 0.0108312 0)
(0.167029 -0.0389321 0)
(0.144176 -0.102818 0)
(0.10318 -0.186017 0)
(0.0454446 -0.293263 0)
(-0.0174193 -0.415001 0)
(-0.0593002 -0.485924 0)
(-0.0249387 -0.321348 0)
(-0.0176654 0.152316 0)
(-0.0616039 0.223824 0)
(-0.0535722 0.216875 0)
(-0.0171104 0.19319 0)
(0.0309906 0.168664 0)
(0.0824816 0.146448 0)
(0.133577 0.126917 0)
(0.182143 0.109412 0)
(0.226685 0.0927957 0)
(0.265841 0.0757841 0)
(0.298064 0.0570379 0)
(0.321429 0.0350984 0)
(0.333477 0.00833755 0)
(0.331111 -0.0253164 0)
(0.310431 -0.0690344 0)
(0.266724 -0.128706 0)
(0.195669 -0.21516 0)
(0.0997113 -0.337344 0)
(0.00237231 -0.455916 0)
(-0.0164696 -0.368004 0)
(-0.0239889 0.208802 0)
(-0.037505 0.230927 0)
(0.0374939 0.176625 0)
(0.124648 0.136351 0)
(0.204388 0.108084 0)
(0.27533 0.0869965 0)
(0.3383 0.0709067 0)
(0.39377 0.0581817 0)
(0.441947 0.0473786 0)
(0.482617 0.0373254 0)
(0.515252 0.0270032 0)
(0.538609 0.0154807 0)
(0.550687 0.00181323 0)
(0.548706 -0.0151206 0)
(0.52871 -0.0372078 0)
(0.485065 -0.0683698 0)
(0.4093 -0.118686 0)
(0.289546 -0.209235 0)
(0.132351 -0.338293 0)
(0.0381373 -0.340082 0)
(0.242019 0.109295 0)
(0.313949 0.0973501 0)
(0.445038 0.0570628 0)
(0.550237 0.0350757 0)
(0.624223 0.0236098 0)
(0.679076 0.0165276 0)
(0.722187 0.0117962 0)
(0.75683 0.0085536 0)
(0.784668 0.00619684 0)
(0.806557 0.00428092 0)
(0.822689 0.00247673 0)
(0.832658 0.000554472 0)
(0.835537 -0.00167248 0)
(0.829825 -0.00435477 0)
(0.813106 -0.00781917 0)
(0.781354 -0.0127632 0)
(0.726109 -0.0212495 0)
(0.630219 -0.0382181 0)
(0.459364 -0.0859042 0)
(0.304859 -0.125775 0)
)
;

boundaryField
{
    movingWall
    {
        type            fixedValue;
        value           uniform (1 0 0);
    }
    fixedWalls
    {
        type            fixedValue;
        value           uniform (0 0 0);
    }
    frontAndBack
    {
        type            empty;
    }
}


// ************************************************************************* //
