/*--------------------------------*- C++ -*----------------------------------*\
  =========                 |
  \\      /  F ield         | OpenFOAM: The Open Source CFD Toolbox
   \\    /   O peration     | Website:  https://openfoam.org
    \\  /    A nd           | Version:  13
     \\/     M anipulation  |
\*---------------------------------------------------------------------------*/
FoamFile
{
    format      ascii;
    class       volVectorField;
    location    "18";
    object      U_0;
}
// * * * * * * * * * * * * * * * * * * * * * * * * * * * * * * * * * * * * * //

dimensions      [0 1 -1 0 0 0 0];

internalField   nonuniform List<vector> 
400
(
(0.000140244 -0.000142994 0)
(-0.000187932 5.99004e-05 0)
(-0.00146624 0.000274001 0)
(-0.00349407 0.000411148 0)
(-0.00596291 0.000481815 0)
(-0.00860109 0.000504267 0)
(-0.0111848 0.000487998 0)
(-0.0135108 0.000433725 0)
(-0.0153758 0.000337442 0)
(-0.0165755 0.000196081 0)
(-0.0169233 1.33428e-05 0)
(-0.0162885 -0.000195784 0)
(-0.0146436 -0.000402935 0)
(-0.012108 -0.000569124 0)
(-0.00896931 -0.000652705 0)
(-0.00566487 -0.00062172 0)
(-0.00271515 -0.000466675 0)
(-0.000607862 -0.000209325 0)
(0.000363344 8.23292e-05 0)
(0.000255495 0.000249867 0)
(-7.05829e-05 0.000185025 0)
(-0.00188 0.00177547 0)
(-0.00576107 0.00338969 0)
(-0.0112112 0.00449473 0)
(-0.0175695 0.00506313 0)
(-0.0242372 0.00516438 0)
(-0.0306806 0.00485117 0)
(-0.0363971 0.00413981 0)
(-0.0408942 0.00303016 0)
(-0.0437001 0.00154096 0)
(-0.0444106 -0.000253896 0)
(-0.0427669 -0.00219946 0)
(-0.0387472 -0.00405461 0)
(-0.0326459 -0.00551693 0)
(-0.0251075 -0.00628112 0)
(-0.0170855 -0.00612438 0)
(-0.00970305 -0.00499901 0)
(-0.00401933 -0.00310728 0)
(-0.000722986 -0.000965758 0)
(0.000157432 0.000409557 0)
(-0.000336926 0.00159589 0)
(-0.00394541 0.00579438 0)
(-0.0104501 0.00950563 0)
(-0.0189985 0.012 0)
(-0.0286507 0.0132374 0)
(-0.038599 0.013336 0)
(-0.0481089 0.0123913 0)
(-0.0564774 0.0104423 0)
(-0.0630196 0.00751272 0)
(-0.0670914 0.00368183 0)
(-0.0681517 -0.000843164 0)
(-0.0658571 -0.00567833 0)
(-0.0601724 -0.010258 0)
(-0.0514687 -0.0138901 0)
(-0.0405758 -0.015881 0)
(-0.0287479 -0.0157205 0)
(-0.0175077 -0.0132895 0)
(-0.00835833 -0.00902944 0)
(-0.00241783 -0.00403565 0)
(-1.99107e-05 -0.000231082 0)
(-0.000575548 0.00410119 0)
(-0.00591485 0.0120987 0)
(-0.0149269 0.0184781 0)
(-0.026349 0.0226149 0)
(-0.0389601 0.024563 0)
(-0.0517953 0.0245235 0)
(-0.0639929 0.0226438 0)
(-0.074726 0.0189906 0)
(-0.0831847 0.01362 0)
(-0.0885994 0.00668844 0)
(-0.0903063 -0.00143677 0)
(-0.0878475 -0.0101025 0)
(-0.0810954 -0.0183584 0)
(-0.0703794 -0.025036 0)
(-0.0565819 -0.0289382 0)
(-0.0411539 -0.0291374 0)
(-0.0259876 -0.0253338 0)
(-0.013106 -0.0181671 0)
(-0.00422444 -0.00935369 0)
(-0.000173015 -0.00175769 0)
(-0.00078132 0.00759948 0)
(-0.00769209 0.0205074 0)
(-0.0190136 0.0300559 0)
(-0.0330789 0.0360107 0)
(-0.0483987 0.0386633 0)
(-0.063886 0.0383621 0)
(-0.0786058 0.0353276 0)
(-0.0916651 0.029655 0)
(-0.102176 0.0214241 0)
(-0.109267 0.0108547 0)
(-0.112136 -0.001541 0)
(-0.110152 -0.0148487 0)
(-0.102988 -0.0277171 0)
(-0.090795 -0.0384375 0)
(-0.0743682 -0.0451774 0)
(-0.0552658 -0.0463956 0)
(-0.0357658 -0.0413966 0)
(-0.0185669 -0.0308716 0)
(-0.0062362 -0.0171575 0)
(-0.000314992 -0.00420513 0)
(-0.000955583 0.0119729 0)
(-0.00924743 0.030804 0)
(-0.0226229 0.0439945 0)
(-0.0390595 0.0519391 0)
(-0.056834 0.0553147 0)
(-0.0747755 0.0546952 0)
(-0.0919225 0.0504036 0)
(-0.107366 0.0425606 0)
(-0.12018 0.0312437 0)
(-0.129408 0.0166917 0)
(-0.134097 -0.000495671 0)
(-0.133378 -0.0191976 0)
(-0.126615 -0.0376871 0)
(-0.113625 -0.0536708 0)
(-0.0949425 -0.0645277 0)
(-0.0720922 -0.0678239 0)
(-0.047711 -0.0621129 0)
(-0.025337 -0.0478455 0)
(-0.00873373 -0.0279363 0)
(-0.000485239 -0.00771028 0)
(-0.0010959 0.0170982 0)
(-0.0105491 0.0427366 0)
(-0.0256622 0.060002 0)
(-0.044127 0.0701168 0)
(-0.0640325 0.0742806 0)
(-0.0841657 0.0733746 0)
(-0.103586 0.0678585 0)
(-0.121416 0.057873 0)
(-0.136739 0.0434541 0)
(-0.148548 0.0247891 0)
(-0.155739 0.00247091 0)
(-0.157172 -0.0222759 0)
(-0.151815 -0.0474267 0)
(-0.138991 -0.070105 0)
(-0.118759 -0.0867591 0)
(-0.0923699 -0.093721 0)
(-0.0626649 -0.0882719 0)
(-0.0341057 -0.0701006 0)
(-0.0120759 -0.0425114 0)
(-0.000731507 -0.0125848 0)
(-0.00119722 0.0228346 0)
(-0.0115543 0.056001 0)
(-0.0280163 0.0777092 0)
(-0.0480643 0.0901651 0)
(-0.0696471 0.0952156 0)
(-0.0915517 0.0941325 0)
(-0.112903 0.0875502 0)
(-0.132913 0.0756267 0)
(-0.150733 0.0583126 0)
(-0.165359 0.0356597 0)
(-0.175589 0.00813162 0)
(-0.180032 -0.0230919 0)
(-0.177221 -0.0558341 0)
(-0.165868 -0.0867217 0)
(-0.145314 -0.111205 0)
(-0.116188 -0.124045 0)
(-0.0811708 -0.120573 0)
(-0.0455236 -0.0988548 0)
(-0.0166677 -0.0620494 0)
(-0.00111288 -0.0193421 0)
(-0.00125576 0.0290184 0)
(-0.0122254 0.0702334 0)
(-0.0295724 0.0966504 0)
(-0.0506353 0.111568 0)
(-0.0732626 0.117595 0)
(-0.0962778 0.116476 0)
(-0.118919 0.10907 0)
(-0.140542 0.0955585 0)
(-0.160441 0.075772 0)
(-0.17771 0.0495456 0)
(-0.19115 0.017082 0)
(-0.199214 -0.0206666 0)
(-0.200063 -0.0615901 0)
(-0.191761 -0.102027 0)
(-0.172727 -0.136522 0)
(-0.14254 -0.158049 0)
(-0.103123 -0.159255 0)
(-0.0600383 -0.135301 0)
(-0.0229429 -0.0880146 0)
(-0.00170808 -0.02872 0)
(-0.0012754 0.0354728 0)
(-0.0125622 0.085022 0)
(-0.0302773 0.116263 0)
(-0.0516633 0.133649 0)
(-0.0744947 0.140658 0)
(-0.0976642 0.139603 0)
(-0.120564 0.131624 0)
(-0.142758 0.116954 0)
(-0.163767 0.095293 0)
(-0.182904 0.0662015 0)
(-0.199122 0.0295064 0)
(-0.210907 -0.0142584 0)
(-0.216223 -0.0633287 0)
(-0.21259 -0.114102 0)
(-0.19743 -0.16054 0)
(-0.16888 -0.193905 0)
(-0.127318 -0.203571 0)
(-0.0776242 -0.180181 0)
(-0.0313193 -0.122023 0)
(-0.00262649 -0.0417036 0)
(-0.00127738 0.0420405 0)
(-0.0126516 0.0999515 0)
(-0.0302203 0.135911 0)
(-0.051143 0.155566 0)
(-0.0731345 0.163383 0)
(-0.0951909 0.162348 0)
(-0.116907 0.153958 0)
(-0.138111 0.138546 0)
(-0.158641 0.115703 0)
(-0.178153 0.0847043 0)
(-0.195943 0.0449315 0)
(-0.210772 -0.00365996 0)
(-0.220702 -0.0599478 0)
(-0.222992 -0.120848 0)
(-0.214212 -0.18033 0)
(-0.190858 -0.228454 0)
(-0.150984 -0.25121 0)
(-0.0973715 -0.233116 0)
(-0.0420771 -0.165516 0)
(-0.00401949 -0.0595343 0)
(-0.00131479 0.0486504 0)
(-0.0127348 0.11469 0)
(-0.0297368 0.154949 0)
(-0.0493706 0.176346 0)
(-0.0693061 0.1845 0)
(-0.0887031 0.183192 0)
(-0.107421 0.17436 0)
(-0.12562 0.158503 0)
(-0.143523 0.135159 0)
(-0.161242 0.103356 0)
(-0.178587 0.0620357 0)
(-0.194854 0.0104904 0)
(-0.208563 -0.0510375 0)
(-0.21716 -0.120474 0)
(-0.216793 -0.192601 0)
(-0.202497 -0.257292 0)
(-0.169514 -0.297861 0)
(-0.11699 -0.291768 0)
(-0.0551012 -0.219146 0)
(-0.00608829 -0.0836659 0)
(-0.00149599 0.0554347 0)
(-0.0132989 0.129126 0)
(-0.0295225 0.172804 0)
(-0.0470571 0.194928 0)
(-0.0635832 0.202531 0)
(-0.0785517 0.20032 0)
(-0.0921943 0.190752 0)
(-0.105068 0.174545 0)
(-0.117841 0.151257 0)
(-0.131137 0.119755 0)
(-0.145384 0.078616 0)
(-0.160609 0.0265052 0)
(-0.176132 -0.0373166 0)
(-0.190113 -0.112168 0)
(-0.198983 -0.194491 0)
(-0.19698 -0.275412 0)
(-0.176676 -0.337294 0)
(-0.132433 -0.351096 0)
(-0.069447 -0.281809 0)
(-0.00907723 -0.115587 0)
(-0.00202641 0.0629208 0)
(-0.0152032 0.143546 0)
(-0.0307328 0.189061 0)
(-0.0453561 0.210198 0)
(-0.0569483 0.215827 0)
(-0.0655147 0.211713 0)
(-0.0718375 0.200838 0)
(-0.0769582 0.184157 0)
(-0.0820086 0.161294 0)
(-0.0881239 0.131052 0)
(-0.096353 0.0917821 0)
(-0.107512 0.0416747 0)
(-0.121921 -0.0208911 0)
(-0.138921 -0.096738 0)
(-0.156053 -0.184597 0)
(-0.167912 -0.2784 0)
(-0.165395 -0.362222 0)
(-0.137903 -0.403185 0)
(-0.0827577 -0.349444 0)
(-0.0131953 -0.156358 0)
(-0.00326685 0.0723197 0)
(-0.0198266 0.158832 0)
(-0.0349702 0.203454 0)
(-0.0456091 0.220904 0)
(-0.0503198 0.222524 0)
(-0.0501593 0.215171 0)
(-0.046731 0.202234 0)
(-0.0416572 0.184814 0)
(-0.036526 0.162586 0)
(-0.0329121 0.134353 0)
(-0.0323818 0.0983901 0)
(-0.0364464 0.0526499 0)
(-0.046411 -0.00506864 0)
(-0.0630076 -0.0768321 0)
(-0.085583 -0.163777 0)
(-0.110483 -0.26382 0)
(-0.128813 -0.365848 0)
(-0.126252 -0.438047 0)
(-0.0906475 -0.414148 0)
(-0.0182925 -0.205784 0)
(-0.00571795 0.0860082 0)
(-0.029049 0.176531 0)
(-0.0437246 0.215492 0)
(-0.0481158 0.225181 0)
(-0.0427945 0.220164 0)
(-0.0307295 0.208094 0)
(-0.0146747 0.192391 0)
(0.00310721 0.174052 0)
(0.0206408 0.152689 0)
(0.0360536 0.127109 0)
(0.0474483 0.0956313 0)
(0.0528362 0.0562117 0)
(0.0501494 0.006481 0)
(0.0374005 -0.0562875 0)
(0.0132137 -0.13507 0)
(-0.0216417 -0.23199 0)
(-0.0609163 -0.343391 0)
(-0.089424 -0.445118 0)
(-0.0861926 -0.464331 0)
(-0.023171 -0.261865 0)
(-0.00992124 0.109068 0)
(-0.0443154 0.198536 0)
(-0.0555147 0.222972 0)
(-0.0474832 0.219085 0)
(-0.026049 0.204605 0)
(0.0027653 0.18679 0)
(0.0349819 0.16824 0)
(0.0678975 0.149388 0)
(0.0994146 0.129562 0)
(0.127644 0.107526 0)
(0.15064 0.0817175 0)
(0.166244 0.0503 0)
(0.171974 0.0111176 0)
(0.165009 -0.0385252 0)
(0.142325 -0.102326 0)
(0.101548 -0.185479 0)
(0.0440923 -0.292703 0)
(-0.0183738 -0.414388 0)
(-0.0597919 -0.485256 0)
(-0.0249789 -0.320775 0)
(-0.0176466 0.152403 0)
(-0.0616392 0.223859 0)
(-0.0537484 0.216772 0)
(-0.0174904 0.192953 0)
(0.0303676 0.168335 0)
(0.0816011 0.14608 0)
(0.132451 0.126559 0)
(0.180806 0.109103 0)
(0.225187 0.0925631 0)
(0.264242 0.075646 0)
(0.296423 0.0570075 0)
(0.319801 0.0351792 0)
(0.33191 0.00852149 0)
(0.329646 -0.0250487 0)
(0.309113 -0.0687115 0)
(0.265588 -0.128365 0)
(0.194731 -0.214853 0)
(0.0990265 -0.337078 0)
(0.00196019 -0.455702 0)
(-0.0165621 -0.367706 0)
(-0.0239581 0.208869 0)
(-0.0374463 0.231012 0)
(0.0375315 0.176647 0)
(0.124601 0.1363 0)
(0.204201 0.107967 0)
(0.274975 0.0868388 0)
(0.337764 0.0707397 0)
(0.393066 0.0580308 0)
(0.441104 0.0472618 0)
(0.481666 0.0372556 0)
(0.514237 0.0269922 0)
(0.537591 0.0155337 0)
(0.549719 0.00192794 0)
(0.547832 -0.0149579 0)
(0.52796 -0.0370313 0)
(0.484451 -0.0682245 0)
(0.408846 -0.118588 0)
(0.289221 -0.209193 0)
(0.132148 -0.338286 0)
(0.0380082 -0.340015 0)
(0.242034 0.109314 0)
(0.314013 0.097376 0)
(0.445136 0.0570658 0)
(0.550328 0.0350609 0)
(0.624268 0.0235817 0)
(0.679039 0.0164927 0)
(0.722046 0.0117601 0)
(0.756587 0.00852024 0)
(0.784347 0.00617153 0)
(0.806188 0.00427044 0)
(0.822309 0.00248447 0)
(0.832305 0.000579462 0)
(0.835243 -0.00163242 0)
(0.82962 -0.00430224 0)
(0.813009 -0.00775596 0)
(0.78136 -0.0126972 0)
(0.726175 -0.0211963 0)
(0.630292 -0.0381895 0)
(0.459386 -0.0859529 0)
(0.304849 -0.12579 0)
)
;

boundaryField
{
    movingWall
    {
        type            calculated;
        value           uniform (1 0 0);
    }
    fixedWalls
    {
        type            calculated;
        value           uniform (0 0 0);
    }
    frontAndBack
    {
        type            empty;
    }
}


// ************************************************************************* //
