/*--------------------------------*- C++ -*----------------------------------*\
  =========                 |
  \\      /  F ield         | OpenFOAM: The Open Source CFD Toolbox
   \\    /   O peration     | Website:  https://openfoam.org
    \\  /    A nd           | Version:  13
     \\/     M anipulation  |
\*---------------------------------------------------------------------------*/
FoamFile
{
    format      ascii;
    class       surfaceScalarField;
    location    "31";
    object      phi;
}
// * * * * * * * * * * * * * * * * * * * * * * * * * * * * * * * * * * * * * //

dimensions      [0 3 -1 0 0 0 0];

internalField   nonuniform List<scalar> 
760
(
4.29538e-06
-4.29527e-06
-3.88888e-05
4.31846e-05
-0.000130693
9.18037e-05
-0.000255362
0.00012467
-0.000397131
0.000141769
-0.000542742
0.000145611
-0.000680458
0.000137715
-0.0007987
0.000118242
-0.000885495
8.67961e-05
-0.000929146
4.36513e-05
-0.000920098
-9.04673e-06
-0.000853659
-6.64376e-05
-0.000732772
-0.000120887
-0.000569892
-0.000162879
-0.000386843
-0.000183048
-0.000211841
-0.000175001
-7.36869e-05
-0.000138155
6.00477e-06
-7.96917e-05
2.2136e-05
-1.61306e-05
2.21356e-05
-4.68972e-05
4.26014e-05
-0.00020751
0.000203797
-0.000468677
0.000352971
-0.000798102
0.000454095
-0.00116186
0.000505527
-0.00152874
0.000512495
-0.00186961
0.00047858
-0.00215594
0.000404575
-0.00235974
0.000290595
-0.00245549
0.000139407
-0.00242414
-4.0394e-05
-0.00225814
-0.000232434
-0.00196643
-0.000412596
-0.00157741
-0.000551893
-0.00113828
-0.000622181
-0.000709067
-0.000604212
-0.000351176
-0.000496044
-0.000111718
-0.000319149
-6.3601e-06
-0.000121489
1.57748e-05
-0.000110584
0.000153186
-0.000400923
0.000494136
-0.000825409
0.000777457
-0.00133553
0.000964222
-0.00188488
0.00105487
-0.00243044
0.00105806
-0.00293143
0.000979565
-0.00334804
0.000821191
-0.00364201
0.000584567
-0.00377939
0.000276788
-0.00373539
-8.43822e-05
-0.00350039
-0.000467439
-0.00308568
-0.000827301
-0.0025275
-0.00111008
-0.00188695
-0.00126272
-0.00124391
-0.00124726
-0.000683324
-0.00105663
-0.00027529
-0.000727184
-5.34948e-05
-0.000343286
-3.772e-05
-0.000171136
0.000324321
-0.000586634
0.000909635
-0.0011653
0.00135613
-0.00184001
0.00163893
-0.00255339
0.00176825
-0.00325435
0.00175902
-0.0038949
0.00162012
-0.00442836
0.00135465
-0.00480981
0.000966017
-0.00499896
0.000465942
-0.00496509
-0.000118253
-0.00469331
-0.000739225
-0.00419138
-0.00132922
-0.00349571
-0.00180575
-0.00267406
-0.00208438
-0.00182186
-0.00209946
-0.00104876
-0.00182974
-0.000454917
-0.00132103
-0.0001032
-0.000695004
-0.00014092
-0.000225083
0.000549404
-0.000753864
0.00143842
-0.00147241
0.00207467
-0.00229549
0.00246201
-0.00315623
0.00262899
-0.0039982
0.00260099
-0.00476964
0.00239156
-0.00542026
0.00200527
-0.00590081
0.00144657
-0.00616521
0.000730335
-0.00617482
-0.000108639
-0.00590478
-0.00100926
-0.00535225
-0.00188175
-0.00454556
-0.00261244
-0.00355211
-0.00307783
-0.00248025
-0.00317131
-0.00146871
-0.00284128
-0.000659198
-0.00213053
-0.000157364
-0.00119684
-0.000298283
-0.000270737
0.000820141
-0.0008964
0.00206408
-0.00173559
0.00291386
-0.00268771
0.00341413
-0.00367852
0.00361981
-0.00464884
0.0035713
-0.00554605
0.00328877
-0.00631907
0.0027783
-0.00691627
0.00204377
-0.00728602
0.00110009
-0.00737991
-1.47506e-05
-0.00715834
-0.00123083
-0.00660051
-0.00243958
-0.00571728
-0.00349567
-0.00456634
-0.00422878
-0.00326333
-0.00447432
-0.0019789
-0.00412571
-0.000909816
-0.00319962
-0.000223515
-0.00188314
-0.000521798
-0.000306335
0.00112648
-0.00100835
0.00276609
-0.00194376
0.00384926
-0.00300029
0.00447066
-0.00409902
0.00471854
-0.00518054
0.00465281
-0.0061942
0.00430242
-0.00709091
0.00367501
-0.00781901
0.00277186
-0.0083227
0.00160378
-0.00854311
0.000205658
-0.00842336
-0.00135057
-0.00791814
-0.00294481
-0.0070107
-0.00440311
-0.00573589
-0.00550358
-0.00420453
-0.00600568
-0.00261537
-0.00571488
-0.00123234
-0.00458265
-0.000311088
-0.00280439
-0.000832888
-0.000330054
0.00145653
-0.00108385
0.00351988
-0.00208537
0.00485078
-0.00321462
0.00559991
-0.00439059
0.00589451
-0.00555606
0.00581828
-0.00666507
0.00541144
-0.00767367
0.0046836
-0.00853348
0.00363167
-0.00918772
0.00225802
-0.00956973
0.000587668
-0.00960545
-0.00131484
-0.00922204
-0.00332822
-0.00836598
-0.00525917
-0.00703307
-0.00683649
-0.00530842
-0.00773033
-0.00340275
-0.00762055
-0.0016513
-0.0063341
-0.000430449
-0.00402525
-0.00126334
-0.000340657
0.00179719
-0.00111848
0.00429771
-0.00215062
0.00588291
-0.00331279
0.00676208
-0.00452409
0.00710581
-0.00573164
0.00702584
-0.00689684
0.00657663
-0.00798429
0.00577106
-0.0089534
0.00460078
-0.00975186
0.00305648
-0.0103112
0.00114698
-0.0105455
-0.00108055
-0.0103564
-0.00351726
-0.00964882
-0.0059668
-0.00836327
-0.00812204
-0.00653065
-0.00956294
-0.00434061
-0.0098106
-0.00218516
-0.00848955
-0.000592523
-0.00561789
-0.00185586
-0.000338585
0.00213577
-0.00111195
0.00507107
-0.00213551
0.00690647
-0.00328305
0.00790962
-0.00447558
0.00829833
-0.00566648
0.00821674
-0.00682698
0.00773714
-0.00793392
0.00687799
-0.00895966
0.00562652
-0.00986359
0.00396042
-0.0105847
0.00186805
-0.0110355
-0.000629746
-0.0111015
-0.0034512
-0.0106487
-0.00641959
-0.00955237
-0.0092184
-0.00775856
-0.0113567
-0.005386
-0.0121832
-0.00283845
-0.0110371
-0.000808227
-0.00764811
-0.00266409
-0.000327437
0.00246321
-0.00107156
0.00581519
-0.00204716
0.00788207
-0.00312703
0.00898949
-0.00423576
0.00940707
-0.00533521
0.00931619
-0.00640908
0.008811
-0.00744983
0.00791874
-0.00844793
0.00662461
-0.00938209
0.00489458
-0.0102097
0.00269563
-0.0108553
1.58988e-05
-0.0112054
-0.00310111
-0.0111
-0.00652496
-0.0103518
-0.00996661
-0.00880012
-0.0129084
-0.00643465
-0.0145486
-0.00358935
-0.0138824
-0.00108678
-0.0101507
-0.00375087
-0.000315918
0.00277912
-0.00101641
0.00651569
-0.00190961
0.00877528
-0.00286678
0.00994665
-0.003819
0.0103593
-0.00474012
0.0102373
-0.00562949
0.00970036
-0.00649832
0.00878757
-0.00735908
0.00748537
-0.00821582
0.00575132
-0.00905354
0.00353334
-0.00982627
0.000788631
-0.0104375
-0.00248987
-0.0107287
-0.00623379
-0.0104698
-0.0102255
-0.00939227
-0.0139859
-0.0073084
-0.0166325
-0.00437289
-0.0168179
-0.00143168
-0.0130919
-0.00518255
-0.00032059
0.00309971
-0.000982219
0.00717732
-0.00176887
0.00956194
-0.00254953
0.0107273
-0.00326815
0.0110779
-0.00391723
0.0108864
-0.00451635
0.0102995
-0.00509821
0.00936942
-0.0056992
0.00808637
-0.00635142
0.00640354
-0.00707337
0.00425529
-0.00785693
0.0015722
-0.00864689
-0.00169991
-0.00931437
-0.00556632
-0.00962587
-0.00991403
-0.00923479
-0.014377
-0.00775923
-0.0181081
-0.00506455
-0.0195126
-0.00183248
-0.016324
-0.00701504
-0.000370358
0.00347007
-0.00102664
0.0078336
-0.00169518
0.0102305
-0.00224566
0.0112778
-0.00264899
0.0114812
-0.00292822
0.0111656
-0.00312991
0.0105012
-0.00331066
0.00955017
-0.00353046
0.00830617
-0.00384796
0.00672103
-0.00431449
0.00472182
-0.00496411
0.00222181
-0.00579523
-0.000868785
-0.00673883
-0.00462273
-0.00760798
-0.00904487
-0.00803994
-0.013945
-0.00749285
-0.0186551
-0.00547074
-0.0215347
-0.00225063
-0.0195441
-0.00926567
-0.000513206
0.00398328
-0.0012329
0.00855329
-0.00177559
0.0107732
-0.00202915
0.0115313
-0.00202035
0.0114724
-0.00182199
0.0109673
-0.00151654
0.0101957
-0.00118644
0.00922007
-0.0009129
0.00803263
-0.000776123
0.00658426
-0.000854383
0.00480008
-0.00121962
0.00258705
-0.00192582
-0.000162587
-0.00298189
-0.00356666
-0.00429483
-0.00773193
-0.00556955
-0.0126703
-0.00619704
-0.0180277
-0.00532549
-0.0224062
-0.00259671
-0.0222728
-0.0118624
-0.000818338
0.00480162
-0.00169633
0.00943129
-0.00206844
0.0111453
-0.00190183
0.0113647
-0.00133624
0.0109069
-0.000521361
0.0101524
0.000415616
0.00925874
0.00136662
0.00826907
0.00223418
0.00716506
0.00292414
0.0058943
0.00334057
0.00438365
0.00338389
0.00254373
0.00295379
0.000267513
0.00196419
-0.00257705
0.000388175
-0.00615591
-0.00162783
-0.0106543
-0.00354977
-0.0161057
-0.00428256
-0.0216735
-0.00269635
-0.023859
-0.0145587
-0.00135273
0.00615435
-0.00243142
0.01051
-0.00240938
0.0111232
-0.00153175
0.0104871
-0.000153003
0.00952811
0.00147682
0.00852257
0.00318917
0.00754639
0.00486093
0.00659732
0.00639084
0.00563516
0.00768336
0.00460178
0.00863783
0.00342919
0.00914118
0.00204038
0.00906353
0.000345161
0.00826056
-0.00177408
0.00659284
-0.00448819
0.00401164
-0.00807311
0.000813864
-0.0129079
-0.00190332
-0.0189563
-0.00226297
-0.0234994
-0.0168217
-0.00213591
0.00829026
-0.00292674
0.0113008
-0.00169928
0.00989577
0.000513364
0.00827446
0.00308421
0.00695726
0.0057238
0.00588298
0.00827988
0.00499032
0.0106563
0.00422086
0.0127791
0.00351239
0.0145748
0.00280609
0.0159575
0.00204653
0.0168198
0.00117799
0.0170245
0.000140553
0.0163988
-0.0011484
0.0147266
-0.00281598
0.0117727
-0.00511931
0.00744665
-0.00858185
0.00243626
-0.0139459
-0.000888987
-0.0201742
-0.0177107
-0.00248588
0.0107761
-1.09023e-05
0.00882581
0.00417644
0.00570842
0.00832111
0.00412978
0.0121087
0.00316964
0.0155092
0.00248254
0.0185242
0.00197533
0.0211601
0.00158496
0.023414
0.00125851
0.0252636
0.000956494
0.026662
0.000648111
0.0275313
0.000308644
0.0277578
-8.58792e-05
0.027181
-0.000571606
0.0255628
-0.00119778
0.0225413
-0.00209783
0.0176142
-0.0036547
0.0103978
-0.00672951
0.00247282
-0.0122492
-0.0152379
0.0107761
0.019602
0.0253104
0.0294402
0.0326098
0.0350923
0.0370677
0.0386526
0.0399111
0.0408676
0.0415157
0.0418244
0.0417385
0.0411669
0.0399691
0.0378713
0.0342166
0.0274871
0.0152379
)
;

boundaryField
{
    movingWall
    {
        type            calculated;
        value           uniform 0;
    }
    fixedWalls
    {
        type            calculated;
        value           uniform 0;
    }
    frontAndBack
    {
        type            empty;
    }
}


// ************************************************************************* //
