/*--------------------------------*- C++ -*----------------------------------*\
  =========                 |
  \\      /  F ield         | OpenFOAM: The Open Source CFD Toolbox
   \\    /   O peration     | Website:  https://openfoam.org
    \\  /    A nd           | Version:  13
     \\/     M anipulation  |
\*---------------------------------------------------------------------------*/
FoamFile
{
    format      ascii;
    class       surfaceScalarField;
    location    "31";
    object      phi_0;
}
// * * * * * * * * * * * * * * * * * * * * * * * * * * * * * * * * * * * * * //

dimensions      [0 3 -1 0 0 0 0];

internalField   nonuniform List<scalar> 
760
(
4.23025e-06
-4.23004e-06
-3.88905e-05
4.31212e-05
-0.000130496
9.16048e-05
-0.000254872
0.000124377
-0.000396292
0.00014142
-0.000541529
0.000145237
-0.000678876
0.000137347
-0.000796795
0.000117919
-0.000883358
8.65625e-05
-0.000926909
4.35523e-05
-0.000917931
-8.97726e-06
-0.000851739
-6.61898e-05
-0.000731254
-0.000120485
-0.000568871
-0.000162383
-0.000386323
-0.000182546
-0.000211735
-0.000174588
-7.38311e-05
-0.000137905
5.79917e-06
-7.96303e-05
2.20169e-05
-1.6217e-05
2.20165e-05
-4.68041e-05
4.25735e-05
-0.000207002
0.000203319
-0.00046749
0.000352093
-0.00079605
0.000452937
-0.00115884
0.000504214
-0.00152475
0.000511145
-0.00186471
0.000477311
-0.00215031
0.000403519
-0.00235364
0.000289891
-0.00244926
0.00013918
-0.00241817
-4.00636e-05
-0.00225282
-0.000231542
-0.00196207
-0.000411232
-0.0015742
-0.000550245
-0.00113624
-0.000620506
-0.000708045
-0.000602783
-0.000350872
-0.000495077
-0.000111771
-0.00031873
-6.4696e-06
-0.000121519
1.5546e-05
-0.000110269
0.000152843
-0.000399789
0.000492839
-0.000823085
0.000775389
-0.00133179
0.000961647
-0.00187963
0.00105205
-0.00242372
0.00105523
-0.00292339
0.000976982
-0.00333898
0.00081911
-0.00363233
0.000583245
-0.00376959
0.000276443
-0.00372602
-8.36271e-05
-0.00349196
-0.0004656
-0.00307863
-0.000824559
-0.0025221
-0.00110678
-0.00188326
-0.00125934
-0.00124176
-0.00124428
-0.000682362
-0.00105448
-0.000275043
-0.00072605
-5.35231e-05
-0.000343041
-3.79771e-05
-0.000170593
0.000323435
-0.000584862
0.000907109
-0.00116186
0.00135238
-0.00183466
0.00163445
-0.00254608
0.00176347
-0.00324518
0.00175433
-0.00388412
0.00161592
-0.00441635
0.00135134
-0.00479708
0.000963977
-0.00498612
0.000465477
-0.00495276
-0.000116982
-0.0046821
-0.000736261
-0.00418181
-0.00132484
-0.00348814
-0.00180045
-0.00266862
-0.00207886
-0.00181844
-0.00209447
-0.00104699
-0.00182593
-0.000454277
-0.00131877
-0.000103117
-0.000694203
-0.000141094
-0.000224347
0.000547782
-0.000751561
0.00143432
-0.00146804
0.00206886
-0.00228885
0.00245526
-0.00314732
0.00262193
-0.00398716
0.00259418
-0.00475679
0.00238554
-0.00540603
0.00200059
-0.00588578
0.00144372
-0.00615
0.000729697
-0.00616011
-0.000106869
-0.00589122
-0.00100515
-0.00534042
-0.00187564
-0.00453591
-0.00260496
-0.0035449
-0.00306988
-0.00247548
-0.00316389
-0.00146606
-0.00283535
-0.000658117
-0.00212671
-0.000157157
-0.00119516
-0.00029825
-0.000269877
0.000817658
-0.000893765
0.00205821
-0.00173067
0.00290577
-0.00268031
0.0034049
-0.00366868
0.0036103
-0.00463675
0.00356225
-0.00553205
0.00328085
-0.00630363
0.00277217
-0.00689993
0.00204002
-0.0072694
0.00109917
-0.00736367
-1.25991e-05
-0.00714312
-0.0012257
-0.00658693
-0.00243183
-0.00570587
-0.00348602
-0.00455749
-0.00421826
-0.00325721
-0.00446417
-0.00197533
-0.00411723
-0.000908254
-0.00319378
-0.00022317
-0.00188025
-0.000521421
-0.000305447
0.00112311
-0.00100565
0.00275842
-0.00193875
0.00383887
-0.00299281
0.00445896
-0.00408913
0.00470662
-0.00516844
0.00464156
-0.00618023
0.00429264
-0.00707551
0.00366745
-0.00780268
0.00276718
-0.00830598
0.00160247
-0.00852655
0.000207972
-0.00840757
-0.00134468
-0.00790369
-0.00293571
-0.00699818
-0.00439153
-0.00572582
-0.00549061
-0.00419725
-0.00599274
-0.00261091
-0.00570358
-0.00123028
-0.00457441
-0.00031059
-0.00279994
-0.000832012
-0.000329251
0.00145236
-0.0010814
0.00351056
-0.00208082
0.00483828
-0.00320783
0.00558597
-0.00438163
0.00588041
-0.00554513
0.00580506
-0.00665249
0.0054
-0.00765981
0.00467477
-0.00851875
0.00362612
-0.00917254
0.00225626
-0.00955452
0.000589954
-0.00959066
-0.00130854
-0.00920814
-0.00331823
-0.0083535
-0.00524617
-0.00702258
-0.00682153
-0.00530045
-0.00771487
-0.00339759
-0.00760644
-0.00164878
-0.00632322
-0.000429787
-0.00401893
-0.0012618
-0.000340055
0.00179241
-0.00111661
0.00428711
-0.00214709
0.00586876
-0.00330748
0.00674636
-0.00451707
0.00709
-0.00572311
0.0070111
-0.00688706
0.00656395
-0.00797356
0.00576127
-0.00894202
0.00459458
-0.0097401
0.00305434
-0.0102993
0.00114913
-0.0105337
-0.00107415
-0.010345
-0.00350693
-0.00963803
-0.00595311
-0.00835367
-0.00810589
-0.00652285
-0.00954568
-0.00433519
-0.0097941
-0.00218231
-0.00847611
-0.000591703
-0.00560954
-0.0018535
-0.000338284
0.00213069
-0.00111093
0.00505975
-0.00213349
0.00689132
-0.00327994
0.00789281
-0.00447142
0.00828148
-0.00566144
0.00820112
-0.00682129
0.0077238
-0.00792779
0.00686777
-0.00895327
0.00562006
-0.00985706
0.00395813
-0.010578
0.00187007
-0.0110287
-0.000623478
-0.0110945
-0.00344108
-0.0106416
-0.00640606
-0.00954533
-0.00920214
-0.00775218
-0.0113388
-0.00538105
-0.0121652
-0.00283555
-0.0110216
-0.000807289
-0.0076378
-0.00266079
-0.000327505
0.0024582
-0.00107158
0.00580383
-0.00204701
0.00786675
-0.00312662
0.00897242
-0.00423514
0.00939
-0.00533448
0.00930047
-0.0064084
0.00879771
-0.00744934
0.0079087
-0.00844769
0.00661841
-0.00938206
0.0048925
-0.0102096
0.00269766
-0.0108552
2.20521e-05
-0.0112046
-0.00309165
-0.0110983
-0.00651237
-0.010349
-0.00995139
-0.00879662
-0.0128913
-0.00643117
-0.0145307
-0.00358687
-0.0138659
-0.00108583
-0.0101388
-0.00374662
-0.000316378
0.00277458
-0.00101757
0.00650502
-0.00191149
0.00876067
-0.00286933
0.00993026
-0.00382221
0.0103429
-0.00474403
0.0102223
-0.00563416
0.00968783
-0.00650379
0.00877833
-0.0073653
0.00747992
-0.00822263
0.00574983
-0.00906066
0.00353568
-0.00983306
0.000794455
-0.0104436
-0.00248116
-0.0107333
-0.00622264
-0.0104724
-0.0102123
-0.00939286
-0.0139708
-0.00730742
-0.0166161
-0.00437143
-0.0168019
-0.00143086
-0.0130794
-0.00517748
-0.000321416
0.00309599
-0.000984459
0.00716807
-0.00177271
0.00954893
-0.00255493
0.0107125
-0.00327505
0.011063
-0.00392556
0.0108728
-0.00452602
0.0102883
-0.0051091
0.00936141
-0.00571114
0.00808196
-0.00636413
0.00640282
-0.00708645
0.004258
-0.00786982
0.00157783
-0.00865894
-0.00169204
-0.0093248
-0.00555678
-0.0096339
-0.00990315
-0.00923988
-0.0143648
-0.0077614
-0.0180946
-0.00506467
-0.0194986
-0.001832
-0.0163121
-0.00700948
-0.00037147
0.00346746
-0.00102976
0.00782635
-0.00170064
0.0102198
-0.00225346
0.0112653
-0.00265898
0.0114685
-0.00294017
0.011154
-0.00314356
0.0104917
-0.0033257
0.00954354
-0.00354654
0.00830281
-0.0038647
0.00672097
-0.00433145
0.00472475
-0.0049808
0.00222717
-0.00581108
-0.000861753
-0.00675313
-0.00461473
-0.00761993
-0.00903635
-0.00804874
-0.013936
-0.00749807
-0.0186453
-0.0054727
-0.021524
-0.00225068
-0.0195341
-0.00926016
-0.00051447
0.00398193
-0.00123653
0.00854842
-0.00178207
0.0107653
-0.0020385
0.0115217
-0.00203235
0.0114624
-0.00183627
0.0109579
-0.00153263
0.010188
-0.00120384
0.00921476
-0.000931083
0.00803005
-0.000794599
0.00658448
-0.000872701
0.00480286
-0.00123738
0.00259185
-0.00194263
-0.000156504
-0.00299729
-0.00356006
-0.00430824
-0.0077254
-0.00558022
-0.012664
-0.00620425
-0.0180213
-0.00532904
-0.0223992
-0.00259745
-0.0222657
-0.0118576
-0.000819541
0.00480147
-0.00169991
0.00942879
-0.00207499
0.0111404
-0.00191145
0.0113582
-0.00134868
0.0108996
-0.000536157
0.0101454
0.000399053
0.00925283
0.00134893
0.00826488
0.00221602
0.00716296
0.00290607
0.00589443
0.00332308
0.00438585
0.00336733
0.00254759
0.0029384
0.000272421
0.00195017
-0.00257183
0.000375795
-0.00615101
-0.00163813
-0.0106501
-0.00355734
-0.016102
-0.00428688
-0.0216697
-0.00269772
-0.0238549
-0.0145553
-0.00135356
0.00615503
-0.00243417
0.0105094
-0.00241472
0.011121
-0.0015399
0.0104834
-0.000163823
0.00952352
0.00146373
0.00851783
0.00317439
0.00754218
0.00484511
0.00659416
0.00637464
0.00563343
0.00766742
0.00460166
0.00862265
0.00343062
0.00912715
0.00204309
0.00905089
0.000348686
0.00824938
-0.00177032
0.00658313
-0.00448477
0.00400348
-0.00807045
0.00080755
-0.0129061
-0.00190736
-0.0189548
-0.00226446
-0.0234978
-0.0168198
-0.00213604
0.00829107
-0.00292789
0.0113012
-0.00170213
0.00989522
0.000508399
0.00827285
0.00307703
0.00695489
0.00571456
0.0058803
0.00826894
0.0049878
0.0106442
0.00421888
0.0127665
0.00351121
0.0145622
0.00280592
0.0159455
0.00204736
0.0168089
0.00117964
0.0170149
0.000142667
0.0163908
-0.00114619
0.0147201
-0.00281408
0.0117676
-0.00511796
0.00744269
-0.00858119
0.00243355
-0.0139456
-0.00089022
-0.020174
-0.01771
-0.00248547
0.0107765
-1.05443e-05
0.0088263
0.00417622
0.00570845
0.00831976
0.0041293
0.0121059
0.00316878
0.0155046
0.00248153
0.0185181
0.00197439
0.0211527
0.00158426
0.0234057
0.00125816
0.0252551
0.000956557
0.0266539
0.000648533
0.0275242
0.000309332
0.0277519
-8.50222e-05
0.0271765
-0.000570783
0.0255596
-0.00119712
0.0225391
-0.00209751
0.0176127
-0.00365474
0.0103967
-0.0067297
0.00247218
-0.0122494
-0.0152378
0.0107765
0.0196028
0.0253113
0.0294406
0.0326094
0.0350909
0.0370653
0.0386496
0.0399077
0.0408643
0.0415128
0.0418222
0.0417371
0.0411663
0.0399692
0.0378717
0.034217
0.0274873
0.0152378
)
;

boundaryField
{
    movingWall
    {
        type            calculated;
        value           uniform 0;
    }
    fixedWalls
    {
        type            calculated;
        value           uniform 0;
    }
    frontAndBack
    {
        type            empty;
    }
}


// ************************************************************************* //
