/*--------------------------------*- C++ -*----------------------------------*\
  =========                 |
  \\      /  F ield         | OpenFOAM: The Open Source CFD Toolbox
   \\    /   O peration     | Website:  https://openfoam.org
    \\  /    A nd           | Version:  13
     \\/     M anipulation  |
\*---------------------------------------------------------------------------*/
FoamFile
{
    format      ascii;
    class       volVectorField;
    location    "31";
    object      U;
}
// * * * * * * * * * * * * * * * * * * * * * * * * * * * * * * * * * * * * * //

dimensions      [0 1 -1 0 0 0 0];

internalField   nonuniform List<vector> 
400
(
(0.000177561 -0.000181295 0)
(-0.000144432 3.40571e-05 0)
(-0.00152733 0.00026951 0)
(-0.0037545 0.000419168 0)
(-0.00648275 0.00049804 0)
(-0.00941395 0.000527522 0)
(-0.0123009 0.000517414 0)
(-0.0149134 0.000466872 0)
(-0.0170148 0.000369441 0)
(-0.0183629 0.000219993 0)
(-0.0187358 2.18234e-05 0)
(-0.0179809 -0.000207934 0)
(-0.0160723 -0.000435914 0)
(-0.0131617 -0.000616333 0)
(-0.00959851 -0.000701281 0)
(-0.00590036 -0.000656097 0)
(-0.00266519 -0.000474177 0)
(-0.000429429 -0.000185187 0)
(0.000521151 0.000130973 0)
(0.000303774 0.000296896 0)
(-5.03962e-05 0.000143171 0)
(-0.00205592 0.00191459 0)
(-0.00635523 0.00371772 0)
(-0.0124246 0.00496365 0)
(-0.0195177 0.0056184 0)
(-0.0269717 0.00575752 0)
(-0.0341893 0.0054318 0)
(-0.0405973 0.0046486 0)
(-0.0456252 0.00339898 0)
(-0.0487233 0.00170203 0)
(-0.0494255 -0.000351724 0)
(-0.0474441 -0.00257217 0)
(-0.0427769 -0.00466801 0)
(-0.0357933 -0.00628218 0)
(-0.0272637 -0.0070664 0)
(-0.0182968 -0.00678453 0)
(-0.0101662 -0.00541782 0)
(-0.00403086 -0.0032403 0)
(-0.00059173 -0.000872286 0)
(0.000214677 0.000569895 0)
(-0.000351664 0.00170355 0)
(-0.00442247 0.00638773 0)
(-0.0117038 0.0105387 0)
(-0.0212968 0.0133449 0)
(-0.0321236 0.0147582 0)
(-0.0432837 0.0149047 0)
(-0.0539503 0.0138743 0)
(-0.0633193 0.0116907 0)
(-0.0706008 0.00836761 0)
(-0.0750533 0.00399759 0)
(-0.0760646 -0.00116509 0)
(-0.0732645 -0.00665401 0)
(-0.0666496 -0.0117954 0)
(-0.0566876 -0.0157846 0)
(-0.0443646 -0.0178411 0)
(-0.0311312 -0.0174267 0)
(-0.0187072 -0.0144789 0)
(-0.00874417 -0.00958415 0)
(-0.00241783 -0.00405314 0)
(2.93419e-05 -2.65356e-06 0)
(-0.000624453 0.00453692 0)
(-0.00670502 0.0134902 0)
(-0.0168464 0.0206386 0)
(-0.0297069 0.0252839 0)
(-0.0438749 0.0274894 0)
(-0.0582718 0.0274713 0)
(-0.0719266 0.0253692 0)
(-0.0838959 0.0212308 0)
(-0.0932536 0.0151071 0)
(-0.0991279 0.0071887 0)
(-0.100783 -0.00207109 0)
(-0.0977344 -0.0118825 0)
(-0.0898853 -0.0211235 0)
(-0.077659 -0.0284487 0)
(-0.0620967 -0.0325201 0)
(-0.0448616 -0.0323544 0)
(-0.0280797 -0.0277253 0)
(-0.0139785 -0.0194908 0)
(-0.004409 -0.00970567 0)
(-0.000130122 -0.00154123 0)
(-0.000859436 0.0085291 0)
(-0.00874916 0.0230005 0)
(-0.0214914 0.0336972 0)
(-0.0373095 0.0403555 0)
(-0.0544782 0.0433201 0)
(-0.071785 0.042972 0)
(-0.0881797 0.0395266 0)
(-0.102651 0.0330608 0)
(-0.114196 0.0236587 0)
(-0.121845 0.0115978 0)
(-0.124727 -0.0024867 0)
(-0.122177 -0.0174954 0)
(-0.113883 -0.031848 0)
(-0.100061 -0.0435958 0)
(-0.081644 -0.0507019 0)
(-0.0603964 -0.0515185 0)
(-0.0388577 -0.0454113 0)
(-0.019999 -0.033341 0)
(-0.00663426 -0.0181072 0)
(-0.000275775 -0.00410158 0)
(-0.00105361 0.0135247 0)
(-0.0104799 0.0346272 0)
(-0.0254593 0.0493752 0)
(-0.0438387 0.0582086 0)
(-0.0636297 0.0619239 0)
(-0.0835321 0.061157 0)
(-0.102474 0.0562357 0)
(-0.119436 0.0472674 0)
(-0.13339 0.0343455 0)
(-0.143295 0.0177864 0)
(-0.14813 -0.00165849 0)
(-0.146982 -0.0226471 0)
(-0.1392 -0.0431812 0)
(-0.124625 -0.0606709 0)
(-0.10388 -0.0722175 0)
(-0.0786608 -0.0752005 0)
(-0.0518715 -0.0681757 0)
(-0.0273913 -0.0518725 0)
(-0.00937524 -0.0297821 0)
(-0.000450133 -0.00783277 0)
(-0.00120009 0.0193398 0)
(-0.0118277 0.0480025 0)
(-0.028582 0.067243 0)
(-0.0490176 0.078419 0)
(-0.0709499 0.0829313 0)
(-0.0930418 0.0817622 0)
(-0.114252 0.0753926 0)
(-0.133612 0.0639604 0)
(-0.150124 0.0475291 0)
(-0.162711 0.0263782 0)
(-0.170215 0.00126825 0)
(-0.171444 -0.0263384 0)
(-0.165323 -0.0541222 0)
(-0.151149 -0.0788686 0)
(-0.128995 -0.0966759 0)
(-0.100215 -0.103583 0)
(-0.0678754 -0.0967573 0)
(-0.0368211 -0.0761034 0)
(-0.0129934 -0.0455797 0)
(-0.000704262 -0.0130629 0)
(-0.00129063 0.0257541 0)
(-0.0127238 0.0626748 0)
(-0.0306928 0.0867578 0)
(-0.0525507 0.100433 0)
(-0.0759879 0.105831 0)
(-0.0996771 0.104369 0)
(-0.122659 0.0967265 0)
(-0.144073 0.0830743 0)
(-0.163018 0.0634035 0)
(-0.178451 0.0378678 0)
(-0.189134 0.00710201 0)
(-0.193633 -0.0274798 0)
(-0.190425 -0.0634062 0)
(-0.178148 -0.0969517 0)
(-0.156081 -0.123164 0)
(-0.124842 -0.1364 0)
(-0.0872349 -0.131705 0)
(-0.0488726 -0.107195 0)
(-0.0178854 -0.0666729 0)
(-0.00110092 -0.0203241 0)
(-0.00132055 0.0325137 0)
(-0.0131219 0.0781154 0)
(-0.0316618 0.107261 0)
(-0.0541743 0.123538 0)
(-0.0782878 0.129907 0)
(-0.102725 0.128304 0)
(-0.126654 0.119661 0)
(-0.149383 0.104195 0)
(-0.170185 0.081795 0)
(-0.188152 0.0524064 0)
(-0.202083 0.0163994 0)
(-0.210422 -0.0250568 0)
(-0.211283 -0.069585 0)
(-0.202637 -0.113197 0)
(-0.182769 -0.150026 0)
(-0.151122 -0.17256 0)
(-0.10956 -0.172965 0)
(-0.0638598 -0.146174 0)
(-0.0244539 -0.0944822 0)
(-0.00172276 -0.030367 0)
(-0.00129606 0.0393523 0)
(-0.0130361 0.0937495 0)
(-0.0314628 0.127998 0)
(-0.0537507 0.146859 0)
(-0.0775143 0.154204 0)
(-0.101561 0.152572 0)
(-0.125226 0.143211 0)
(-0.148048 0.126423 0)
(-0.16956 0.101988 0)
(-0.18911 0.0695931 0)
(-0.205703 0.0292298 0)
(-0.217861 -0.0183766 0)
(-0.223546 -0.07124 0)
(-0.220205 -0.125503 0)
(-0.205087 -0.174773 0)
(-0.17608 -0.209814 0)
(-0.133287 -0.21936 0)
(-0.0815501 -0.193466 0)
(-0.033054 -0.130489 0)
(-0.00268337 -0.0441694 0)
(-0.00124416 0.0460378 0)
(-0.0125925 0.109022 0)
(-0.0302623 0.148163 0)
(-0.0513913 0.169379 0)
(-0.0736142 0.177525 0)
(-0.0958607 0.175833 0)
(-0.117682 0.16595 0)
(-0.138901 0.148312 0)
(-0.159394 0.12263 0)
(-0.178891 0.0883261 0)
(-0.196786 0.0449551 0)
(-0.211928 -0.00735477 0)
(-0.222444 -0.0673297 0)
(-0.225575 -0.131717 0)
(-0.217739 -0.194261 0)
(-0.195127 -0.244613 0)
(-0.155334 -0.26807 0)
(-0.100784 -0.248224 0)
(-0.0438652 -0.175874 0)
(-0.00413754 -0.0629275 0)
(-0.00122627 0.0524529 0)
(-0.0120948 0.123509 0)
(-0.0285204 0.166996 0)
(-0.0475848 0.190002 0)
(-0.0669746 0.19848 0)
(-0.0858106 0.196459 0)
(-0.103926 0.18606 0)
(-0.121491 0.167931 0)
(-0.138788 0.141767 0)
(-0.156022 0.10678 0)
(-0.173124 0.0620982 0)
(-0.189532 0.00718134 0)
(-0.203874 -0.0576253 0)
(-0.213641 -0.130184 0)
(-0.214922 -0.205215 0)
(-0.202483 -0.272375 0)
(-0.171028 -0.314384 0)
(-0.119078 -0.307592 0)
(-0.0566432 -0.230904 0)
(-0.00628369 -0.0879972 0)
(-0.00136008 0.0587235 0)
(-0.0121084 0.137076 0)
(-0.027093 0.183887 0)
(-0.0432928 0.207629 0)
(-0.0585132 0.215563 0)
(-0.0722075 0.212628 0)
(-0.0846071 0.201481 0)
(-0.0962987 0.183031 0)
(-0.108014 0.157031 0)
(-0.12047 0.122562 0)
(-0.134212 0.0784106 0)
(-0.149396 0.0234142 0)
(-0.165469 -0.0430727 0)
(-0.180694 -0.120393 0)
(-0.191542 -0.205078 0)
(-0.192118 -0.288269 0)
(-0.174529 -0.351986 0)
(-0.13242 -0.366152 0)
(-0.0703295 -0.29403 0)
(-0.00934533 -0.120711 0)
(-0.00186024 0.0654167 0)
(-0.0135801 0.150067 0)
(-0.0273173 0.198479 0)
(-0.0399549 0.221207 0)
(-0.0496007 0.227207 0)
(-0.0563201 0.22243 0)
(-0.0609348 0.210068 0)
(-0.0645354 0.191285 0)
(-0.0683158 0.165922 0)
(-0.0734819 0.133013 0)
(-0.0811571 0.0911348 0)
(-0.0922367 0.0386634 0)
(-0.107125 -0.0259247 0)
(-0.125262 -0.10349 0)
(-0.144303 -0.192935 0)
(-0.158882 -0.2884 0)
(-0.159647 -0.373935 0)
(-0.135411 -0.415965 0)
(-0.0825641 -0.360833 0)
(-0.013481 -0.161911 0)
(-0.00309816 0.0738333 0)
(-0.0179856 0.163514 0)
(-0.0309944 0.21067 0)
(-0.0392194 0.229649 0)
(-0.0415599 0.231726 0)
(-0.0392002 0.223879 0)
(-0.0338322 0.209685 0)
(-0.0271485 0.190448 0)
(-0.0207921 0.166057 0)
(-0.0163748 0.13554 0)
(-0.0154825 0.0973927 0)
(-0.019631 0.0497548 0)
(-0.0301283 -0.00945731 0)
(-0.0477397 -0.0823121 0)
(-0.0719182 -0.170095 0)
(-0.0991649 -0.270997 0)
(-0.120598 -0.374135 0)
(-0.121619 -0.447481 0)
(-0.0891746 -0.423353 0)
(-0.0184749 -0.211143 0)
(-0.00558938 0.0865036 0)
(-0.0273147 0.179221 0)
(-0.0398309 0.220252 0)
(-0.0417124 0.231375 0)
(-0.0338986 0.226939 0)
(-0.0195441 0.214644 0)
(-0.00153967 0.198048 0)
(0.017761 0.178318 0)
(0.0363328 0.155249 0)
(0.0522896 0.127845 0)
(0.0637564 0.0946147 0)
(0.0687983 0.0536886 0)
(0.0654166 0.00282571 0)
(0.0516769 -0.0606517 0)
(0.0261806 -0.139779 0)
(-0.010439 -0.236877 0)
(-0.0520982 -0.348598 0)
(-0.083703 -0.450997 0)
(-0.083688 -0.470532 0)
(-0.0231234 -0.266283 0)
(-0.00989582 0.108753 0)
(-0.0431105 0.199465 0)
(-0.0525302 0.225443 0)
(-0.0423139 0.222836 0)
(-0.0186142 0.209046 0)
(0.0123299 0.191296 0)
(0.0463634 0.17227 0)
(0.0806664 0.152513 0)
(0.113078 0.131496 0)
(0.141692 0.108132 0)
(0.164597 0.0810049 0)
(0.179701 0.0484247 0)
(0.184618 0.00836274 0)
(0.176626 -0.0417959 0)
(0.152766 -0.105732 0)
(0.110659 -0.188721 0)
(0.0516282 -0.295696 0)
(-0.0130138 -0.417471 0)
(-0.0570124 -0.488649 0)
(-0.0246852 -0.323762 0)
(-0.0177897 0.151761 0)
(-0.0613304 0.223659 0)
(-0.0524124 0.217572 0)
(-0.0146674 0.194735 0)
(0.0349205 0.170782 0)
(0.0879313 0.148775 0)
(0.140405 0.129108 0)
(0.190072 0.111178 0)
(0.235347 0.0939326 0)
(0.274831 0.0761753 0)
(0.306989 0.0566534 0)
(0.329942 0.0340213 0)
(0.3413 0.00674455 0)
(0.338051 -0.0271717 0)
(0.316368 -0.0708866 0)
(0.271644 -0.130323 0)
(0.199671 -0.216364 0)
(0.102652 -0.338273 0)
(0.00415584 -0.456702 0)
(-0.0160075 -0.369199 0)
(-0.0241886 0.208344 0)
(-0.0378588 0.230436 0)
(0.0373067 0.176547 0)
(0.125012 0.13679 0)
(0.205658 0.108937 0)
(0.277684 0.0880648 0)
(0.341782 0.071974 0)
(0.398261 0.0590705 0)
(0.447189 0.0479643 0)
(0.488339 0.0375194 0)
(0.521058 0.0267752 0)
(0.544103 0.0148717 0)
(0.555571 0.000926233 0)
(0.55279 -0.0161381 0)
(0.531923 -0.038158 0)
(0.487482 -0.0690649 0)
(0.410975 -0.119069 0)
(0.290764 -0.209354 0)
(0.133058 -0.338294 0)
(0.038721 -0.340339 0)
(0.241906 0.109157 0)
(0.313526 0.0971513 0)
(0.444422 0.0569826 0)
(0.549714 0.0351028 0)
(0.624081 0.0237186 0)
(0.67953 0.0166827 0)
(0.723308 0.0119564 0)
(0.758533 0.00868088 0)
(0.78677 0.00625667 0)
(0.808823 0.00424751 0)
(0.824873 0.0023546 0)
(0.83454 0.000370207 0)
(0.83695 -0.00188305 0)
(0.830672 -0.00457008 0)
(0.813383 -0.00801723 0)
(0.781176 -0.0128908 0)
(0.725745 -0.0212523 0)
(0.629899 -0.0381172 0)
(0.459274 -0.0855774 0)
(0.304889 -0.125702 0)
)
;

boundaryField
{
    movingWall
    {
        type            fixedValue;
        value           uniform (1 0 0);
    }
    fixedWalls
    {
        type            fixedValue;
        value           uniform (0 0 0);
    }
    frontAndBack
    {
        type            empty;
    }
}


// ************************************************************************* //
