/*--------------------------------*- C++ -*----------------------------------*\
  =========                 |
  \\      /  F ield         | OpenFOAM: The Open Source CFD Toolbox
   \\    /   O peration     | Website:  https://openfoam.org
    \\  /    A nd           | Version:  13
     \\/     M anipulation  |
\*---------------------------------------------------------------------------*/
FoamFile
{
    format      ascii;
    class       surfaceScalarField;
    location    "13";
    object      phi;
}
// * * * * * * * * * * * * * * * * * * * * * * * * * * * * * * * * * * * * * //

dimensions      [0 3 -1 0 0 0 0];

internalField   nonuniform List<scalar> 
760
(
6.78317e-07
-6.79866e-07
-3.819e-05
3.8869e-05
-0.000116795
7.86065e-05
-0.000221777
0.000104983
-0.000339802
0.000118025
-0.000459669
0.000119867
-0.000571769
0.0001121
-0.000667122
9.53522e-05
-0.000736866
6.97437e-05
-0.00077255
3.5684e-05
-0.000767248
-5.30243e-06
-0.000717324
-4.99246e-05
-0.000624383
-9.29408e-05
-0.000496806
-0.000127576
-0.000350079
-0.000146726
-0.000205264
-0.000144814
-8.53491e-05
-0.000119915
-9.72225e-06
-7.56268e-05
1.32754e-05
-2.29975e-05
1.32749e-05
-4.0906e-05
4.02264e-05
-0.000174977
0.000172943
-0.000391539
0.000295172
-0.000663124
0.000376569
-0.000961338
0.000416239
-0.00126041
0.00041894
-0.00153698
0.000388668
-0.001769
0.000327375
-0.00193539
0.000236124
-0.00201697
0.00011727
-0.00199906
-2.32125e-05
-0.00187495
-0.000174042
-0.00164974
-0.000318149
-0.00134314
-0.000434167
-0.000989826
-0.000500043
-0.000635964
-0.000498676
-0.00033142
-0.000424458
-0.000117994
-0.000289052
-1.54108e-05
-0.000125583
-2.13612e-06
-9.05893e-05
0.000130817
-0.000327691
0.000410048
-0.000673655
0.000641138
-0.0010887
0.000791616
-0.00153462
0.000862151
-0.00197637
0.000860692
-0.00238158
0.000793872
-0.00271951
0.000665306
-0.00296104
0.000477655
-0.00308015
0.000236384
-0.0030571
-4.62644e-05
-0.00288276
-0.00034838
-0.00256335
-0.000637563
-0.0021241
-0.000873411
-0.0016103
-0.00101384
-0.00108368
-0.0010253
-0.000612948
-0.00089519
-0.000258816
-0.000643184
-5.66884e-05
-0.000327714
-5.88243e-05
-0.000136583
0.000267401
-0.000471519
0.000744985
-0.000938864
0.00110848
-0.00148447
0.00133722
-0.0020615
0.00143918
-0.00262857
0.00142776
-0.00314762
0.00131292
-0.00358235
0.00110004
-0.00389802
0.000793317
-0.00406292
0.000401282
-0.00405179
-5.73876e-05
-0.00385069
-0.000549478
-0.00346268
-0.00102557
-0.00291321
-0.00142289
-0.00225317
-0.00167388
-0.00155705
-0.00172142
-0.000913435
-0.0015388
-0.000407262
-0.00114936
-9.795e-05
-0.000637026
-0.000156774
-0.000177824
0.000445225
-0.000602705
0.00116987
-0.00118259
0.00168837
-0.00184908
0.00200371
-0.0025476
0.0021377
-0.0032323
0.00211246
-0.00386183
0.00194245
-0.00439655
0.00163476
-0.00479746
0.00119423
-0.00502725
0.000631075
-0.00505343
-3.12161e-05
-0.0048535
-0.0007494
-0.00442207
-0.001457
-0.00377878
-0.00206618
-0.00297529
-0.00247737
-0.00209744
-0.00259927
-0.00125772
-0.00237852
-0.00057462
-0.00183246
-0.00014224
-0.00106941
-0.000299014
-0.000214648
0.000659873
-0.000720847
0.00167606
-0.00140362
0.00237114
-0.00218173
0.00278181
-0.00299421
0.00295019
-0.00379253
0.00291078
-0.00453411
0.00268403
-0.00517777
0.00227843
-0.00568146
0.00169791
-0.00600209
0.000951712
-0.00609805
6.47425e-05
-0.00593438
-0.00091307
-0.00549118
-0.0019002
-0.00477498
-0.00278238
-0.00383135
-0.00342101
-0.00275414
-0.00367648
-0.00168336
-0.0034493
-0.000782805
-0.00273301
-0.000196898
-0.00165531
-0.000495913
-0.000247145
0.000907017
-0.000825132
0.00225405
-0.00159948
0.00314548
-0.00247806
0.0036604
-0.00339523
0.00386735
-0.00430162
0.00381716
-0.00515547
0.00353788
-0.00591614
0.0030391
-0.00654002
0.0023218
-0.00697892
0.00139061
-0.00718115
0.000266973
-0.00709616
-0.000998052
-0.00668376
-0.0023126
-0.00592873
-0.00353741
-0.00486033
-0.0044894
-0.0035721
-0.00496471
-0.0022309
-0.00479051
-0.00105804
-0.00390586
-0.000271002
-0.00244236
-0.000766915
-0.00027494
0.00118196
-0.000913552
0.00289266
-0.00176526
0.00399719
-0.00272894
0.00462408
-0.00373596
0.00487437
-0.00473808
0.00481928
-0.00569662
0.00449641
-0.00657392
0.0039164
-0.00732735
0.00307523
-0.0079057
0.00196896
-0.0082484
0.000609675
-0.00828852
-0.000957935
-0.00796143
-0.00263969
-0.00722142
-0.00427742
-0.00606778
-0.00564304
-0.00457792
-0.00645456
-0.00293573
-0.0064327
-0.00142789
-0.00541371
-0.00037495
-0.00349529
-0.00114187
-0.000297519
0.00147948
-0.000983563
0.00357871
-0.00189446
0.00490809
-0.00292142
0.00565104
-0.00399432
0.00594727
-0.00506795
0.00589291
-0.0061091
0.00553757
-0.00708614
0.00489344
-0.00796105
0.00395014
-0.00868381
0.00269173
-0.00918913
0.00111499
-0.00939667
-0.000750391
-0.00921721
-0.00281916
-0.00856815
-0.00492648
-0.00740357
-0.00680762
-0.00576094
-0.00809719
-0.00381683
-0.00837681
-0.00191788
-0.00731266
-0.000520571
-0.0048926
-0.00166243
-0.00031498
0.00179446
-0.00103386
0.00429759
-0.00198154
0.00585577
-0.00304197
0.00671147
-0.00414468
0.00704998
-0.00524931
0.00699753
-0.00633063
0.0066189
-0.00736647
0.00592928
-0.00832816
0.00491182
-0.00917305
0.00353662
-0.00983871
0.00178065
-0.0102392
-0.000349937
-0.0102665
-0.00279177
-0.00980093
-0.00539209
-0.00873891
-0.00786964
-0.00704921
-0.0097869
-0.00485938
-0.0105666
-0.00254507
-0.00962696
-0.000720988
-0.00671668
-0.00238342
-0.000329275
0.00212373
-0.00106727
0.00503559
-0.00202608
0.00681457
-0.00308167
0.00776707
-0.00416429
0.0081326
-0.00524039
0.00807364
-0.00629543
0.00767394
-0.00732027
0.00695412
-0.00830081
0.00589236
-0.0092093
0.0044451
-0.00999633
0.00256769
-0.010583
0.000236693
-0.0108557
-0.00251908
-0.0106664
-0.00558138
-0.00985138
-0.00868462
-0.00828495
-0.0113533
-0.00599045
-0.0128611
-0.00330542
-0.012312
-0.000989374
-0.00903273
-0.0033728
-0.000346136
0.00246987
-0.00109483
0.00578428
-0.00203826
0.007758
-0.00304273
0.00877153
-0.00404118
0.00913106
-0.00500995
0.0090424
-0.00594822
0.00861221
-0.00686346
0.00786935
-0.00776093
0.00678983
-0.00863506
0.00531924
-0.00946028
0.00339291
-0.0101804
0.000956818
-0.010695
-0.00200452
-0.0108488
-0.00542753
-0.010431
-0.0091024
-0.00921094
-0.0125734
-0.00705277
-0.0150193
-0.00415311
-0.0152116
-0.00133513
-0.0118507
-0.00470793
-0.000378071
0.00284794
-0.00114107
0.00654728
-0.00204466
0.0086616
-0.00294422
0.00967109
-0.00378067
0.00996751
-0.00454587
0.0098076
-0.00525701
0.00932335
-0.00594137
0.00855371
-0.00662704
0.00747549
-0.00733567
0.00602787
-0.00807417
0.00413141
-0.0088228
0.00170545
-0.00951702
-0.00131031
-0.0100241
-0.00492048
-0.0101186
-0.00900785
-0.00948257
-0.0132095
-0.00778889
-0.016713
-0.00497439
-0.0180262
-0.00175528
-0.0150698
-0.00646322
-0.000449133
0.00329707
-0.00125026
0.0073484
-0.00209213
0.00950347
-0.00282269
0.0104016
-0.00340385
0.0105487
-0.00385369
0.0102574
-0.00421368
0.00968334
-0.00453386
0.00887389
-0.00486638
0.00780801
-0.00526128
0.00642277
-0.00576111
0.00463123
-0.00639096
0.0023353
-0.00714019
-0.000561077
-0.00793123
-0.00412944
-0.00857333
-0.00836574
-0.00871389
-0.0130689
-0.00785009
-0.0175768
-0.00556396
-0.0203123
-0.00221817
-0.0184156
-0.00868139
-0.000601768
0.00389884
-0.00149072
0.00823735
-0.00224191
0.0102547
-0.00271533
0.0108751
-0.00292244
0.0107558
-0.00292609
0.0102611
-0.00280074
0.00955799
-0.00262166
0.00869481
-0.00246369
0.00765004
-0.00240189
0.00636097
-0.00251072
0.00474007
-0.00285914
0.00268372
-0.00349724
7.70235e-05
-0.00442668
-0.00319999
-0.00554394
-0.00724849
-0.00654546
-0.0120674
-0.00683344
-0.0172888
-0.00561333
-0.0215324
-0.00263498
-0.021394
-0.0113164
-0.000899114
0.00479796
-0.00194227
0.0092805
-0.00252607
0.0108385
-0.00258768
0.0109367
-0.0022465
0.0104146
-0.001638
0.0096526
-0.000878961
0.00879894
-7.00012e-05
0.00788584
0.000696375
0.00688366
0.00132823
0.00572912
0.00172884
0.00433946
0.00179607
0.00261648
0.00142733
0.000445759
0.000537885
-0.00231054
-0.00089049
-0.00582011
-0.00269508
-0.0102628
-0.00432889
-0.015655
-0.00471295
-0.0211483
-0.00281275
-0.0232942
-0.0141291
-0.00140297
0.00620092
-0.00260886
0.0104864
-0.00276222
0.0109918
-0.00208404
0.0102585
-0.000906796
0.00923737
0.000536049
0.00820975
0.00208818
0.00724681
0.00363467
0.00633936
0.00507902
0.00543931
0.00632678
0.00448136
0.00727468
0.00339156
0.00780513
0.00208604
0.00778345
0.000467436
0.00706235
-0.00158943
0.00550423
-0.004262
0.00307066
-0.00782924
8.11738e-05
-0.0126655
-0.00236657
-0.0187006
-0.00241831
-0.0232424
-0.0165474
-0.0021373
0.00833823
-0.00299012
0.0113392
-0.0018698
0.00987149
0.000202608
0.00818608
0.00261919
0.00682079
0.00510719
0.00572175
0.00752736
0.00482664
0.00979302
0.00407369
0.011837
0.00339531
0.0135884
0.00273003
0.0149581
0.00202182
0.0158359
0.00120821
0.016082
0.000221304
0.0155225
-0.00102986
0.0139417
-0.00268126
0.0110997
-0.00498716
0.0069067
-0.00847257
0.00207035
-0.0138642
-0.00104177
-0.0201303
-0.0175892
-0.00245922
0.0107974
1.82104e-05
0.00886179
0.0041749
0.00571481
0.00824813
0.00411285
0.0119409
0.00312797
0.0152386
0.00242407
0.0181522
0.0019131
0.0206965
0.0015294
0.0228741
0.00121764
0.0246681
0.000936037
0.0260396
0.000650303
0.0269155
0.000332361
0.0271778
-4.09783e-05
0.0266587
-0.000510814
0.0251086
-0.00113117
0.0221691
-0.00204762
0.0173309
-0.00363439
0.0102037
-0.006737
0.00235582
-0.0122824
-0.0152334
0.0107974
0.0196592
0.025374
0.0294869
0.0326149
0.0350389
0.036952
0.0384814
0.0396991
0.0406351
0.0412854
0.0416178
0.0415768
0.041066
0.0399348
0.0378872
0.0342528
0.0275158
0.0152334
)
;

boundaryField
{
    movingWall
    {
        type            calculated;
        value           uniform 0;
    }
    fixedWalls
    {
        type            calculated;
        value           uniform 0;
    }
    frontAndBack
    {
        type            empty;
    }
}


// ************************************************************************* //
