/*--------------------------------*- C++ -*----------------------------------*\
  =========                 |
  \\      /  F ield         | OpenFOAM: The Open Source CFD Toolbox
   \\    /   O peration     | Website:  https://openfoam.org
    \\  /    A nd           | Version:  13
     \\/     M anipulation  |
\*---------------------------------------------------------------------------*/
FoamFile
{
    format      ascii;
    class       volVectorField;
    location    "13";
    object      U_0;
}
// * * * * * * * * * * * * * * * * * * * * * * * * * * * * * * * * * * * * * //

dimensions      [0 1 -1 0 0 0 0];

internalField   nonuniform List<vector> 
400
(
(0.000111011 -0.000113047 0)
(-0.000221286 7.57552e-05 0)
(-0.00140514 0.000268906 0)
(-0.0032513 0.000392949 0)
(-0.00547838 0.000455613 0)
(-0.00783894 0.000472298 0)
(-0.0101316 0.000451982 0)
(-0.012179 0.000396592 0)
(-0.0138105 0.000304153 0)
(-0.0148593 0.000173354 0)
(-0.0151749 8.18299e-06 0)
(-0.0146513 -0.000178518 0)
(-0.0132625 -0.000363335 0)
(-0.0110983 -0.000514104 0)
(-0.00838456 -0.000595674 0)
(-0.00547557 -0.000579263 0)
(-0.00280901 -0.000453026 0)
(-0.000820866 -0.000231012 0)
(0.000188011 3.36375e-05 0)
(0.000206735 0.000202387 0)
(-8.29798e-05 0.000217281 0)
(-0.0017305 0.00165419 0)
(-0.00523347 0.00309281 0)
(-0.0101172 0.00406123 0)
(-0.0157871 0.00454042 0)
(-0.0217017 0.00459675 0)
(-0.0273857 0.00428608 0)
(-0.0324044 0.00363465 0)
(-0.0363436 0.00265266 0)
(-0.0388133 0.00136107 0)
(-0.0394807 -0.000179749 0)
(-0.0381282 -0.00184816 0)
(-0.0347265 -0.00345391 0)
(-0.0295014 -0.00475315 0)
(-0.02297 -0.00548968 0)
(-0.0159192 -0.00545987 0)
(-0.00930551 -0.00458889 0)
(-0.00407284 -0.00300207 0)
(-0.000897854 -0.00109421 0)
(9.77084e-05 0.000230738 0)
(-0.000317384 0.00149865 0)
(-0.00352732 0.00526438 0)
(-0.00932049 0.00856084 0)
(-0.016903 0.0107455 0)
(-0.0254409 0.0117908 0)
(-0.0342083 0.0118127 0)
(-0.042556 0.0109168 0)
(-0.0498789 0.00916286 0)
(-0.0556013 0.0065911 0)
(-0.059188 0.00327657 0)
(-0.0601887 -0.000612787 0)
(-0.0583102 -0.00477263 0)
(-0.0535058 -0.00875047 0)
(-0.0460606 -0.0119802 0)
(-0.0366439 -0.0138735 0)
(-0.0262947 -0.0139635 0)
(-0.0163087 -0.0120787 0)
(-0.0080127 -0.00850185 0)
(-0.00246094 -0.00408125 0)
(-7.30272e-05 -0.000504251 0)
(-0.000524363 0.00371787 0)
(-0.00521013 0.0108477 0)
(-0.0131722 0.016496 0)
(-0.0232414 0.0201152 0)
(-0.0343449 0.0217596 0)
(-0.0456174 0.0216272 0)
(-0.0562987 0.0198843 0)
(-0.0656779 0.0166296 0)
(-0.073072 0.0119406 0)
(-0.0778364 0.00595853 0)
(-0.079412 -0.00102078 0)
(-0.0774038 -0.008478 0)
(-0.071684 -0.0156479 0)
(-0.0625029 -0.0215681 0)
(-0.0505777 -0.0252198 0)
(-0.0371176 -0.0257623 0)
(-0.0237341 -0.0228324 0)
(-0.0121962 -0.016828 0)
(-0.00406246 -0.00906981 0)
(-0.000220972 -0.00204326 0)
(-0.000702644 0.00677722 0)
(-0.00673017 0.0182417 0)
(-0.0167049 0.0266844 0)
(-0.0290837 0.0318982 0)
(-0.0425638 0.0341416 0)
(-0.0561682 0.0337507 0)
(-0.0690695 0.030972 0)
(-0.0804974 0.0259441 0)
(-0.0896976 0.018773 0)
(-0.0959317 0.00965299 0)
(-0.0985163 -0.0010054 0)
(-0.0969023 -0.012472 0)
(-0.0907931 -0.0236506 0)
(-0.0802914 -0.033124 0)
(-0.0660515 -0.0393292 0)
(-0.0493849 -0.0408875 0)
(-0.0322394 -0.0370652 0)
(-0.0169608 -0.0282495 0)
(-0.00581853 -0.0162252 0)
(-0.000362261 -0.00439 0)
(-0.000856944 0.0105847 0)
(-0.00809755 0.0272854 0)
(-0.0199159 0.0389517 0)
(-0.0344319 0.0459232 0)
(-0.0501349 0.0487887 0)
(-0.0659659 0.0480919 0)
(-0.0810684 0.044186 0)
(-0.0946515 0.0372462 0)
(-0.10592 0.0273828 0)
(-0.114052 0.0148038 0)
(-0.118221 -1.29466e-05 0)
(-0.117666 -0.0161685 0)
(-0.111825 -0.03225 0)
(-0.10052 -0.0463407 0)
(-0.0842021 -0.0561987 0)
(-0.064175 -0.0596704 0)
(-0.0427167 -0.0553547 0)
(-0.0229028 -0.0433854 0)
(-0.00800589 -0.0259692 0)
(-0.000533946 -0.00765823 0)
(-0.000988901 0.0150642 0)
(-0.00931922 0.0378225 0)
(-0.0227943 0.0531218 0)
(-0.0392498 0.0620264 0)
(-0.0569965 0.0655781 0)
(-0.0749275 0.0646027 0)
(-0.0921956 0.0595899 0)
(-0.10803 0.0507451 0)
(-0.121629 0.0381461 0)
(-0.132109 0.0219522 0)
(-0.138496 0.00262905 0)
(-0.139778 -0.0188388 0)
(-0.135039 -0.0407797 0)
(-0.123684 -0.060767 0)
(-0.105767 -0.0757461 0)
(-0.0823993 -0.0824901 0)
(-0.0560807 -0.0784884 0)
(-0.0307215 -0.063186 0)
(-0.0109744 -0.039056 0)
(-0.000780569 -0.0121316 0)
(-0.00109716 0.0201425 0)
(-0.0103868 0.0496825 0)
(-0.025296 0.068986 0)
(-0.0434334 0.0799959 0)
(-0.062959 0.0843274 0)
(-0.0827535 0.0831665 0)
(-0.10202 0.0771736 0)
(-0.120055 0.0665778 0)
(-0.136097 0.0513813 0)
(-0.149244 0.031618 0)
(-0.158405 0.00763446 0)
(-0.162321 -0.0196237 0)
(-0.159675 -0.0483418 0)
(-0.149328 -0.0756404 0)
(-0.130726 -0.0975715 0)
(-0.104484 -0.109521 0)
(-0.0730525 -0.107279 0)
(-0.041121 -0.088871 0)
(-0.015128 -0.0565995 0)
(-0.00115673 -0.0182894 0)
(-0.00118014 0.0257407 0)
(-0.0112853 0.0626645 0)
(-0.0273549 0.0862752 0)
(-0.046823 0.0995232 0)
(-0.0677182 0.10472 0)
(-0.0889422 0.103496 0)
(-0.109792 0.0967247 0)
(-0.129681 0.0846582 0)
(-0.147956 0.0671849 0)
(-0.163767 0.0441351 0)
(-0.175988 0.0156161 0)
(-0.183179 -0.0176247 0)
(-0.183651 -0.0538118 0)
(-0.175664 -0.089775 0)
(-0.15785 -0.120717 0)
(-0.129949 -0.140406 0)
(-0.0938555 -0.142251 0)
(-0.0546816 -0.121756 0)
(-0.0209193 -0.0800568 0)
(-0.00173466 -0.0268354 0)
(-0.00124131 0.0317753 0)
(-0.0120173 0.0765339 0)
(-0.0289229 0.104641 0)
(-0.0492536 0.120161 0)
(-0.0709139 0.126235 0)
(-0.0928575 0.125035 0)
(-0.114518 0.117699 0)
(-0.135484 0.104519 0)
(-0.155285 0.0852461 0)
(-0.173231 0.0594472 0)
(-0.18829 0.0268789 0)
(-0.198993 -0.012083 0)
(-0.203415 -0.055947 0)
(-0.199275 -0.10154 0)
(-0.184277 -0.143461 0)
(-0.156898 -0.173859 0)
(-0.117773 -0.183167 0)
(-0.0716254 -0.162896 0)
(-0.0288222 -0.111132 0)
(-0.00261519 -0.0387318 0)
(-0.00129799 0.0381782 0)
(-0.0126439 0.0910425 0)
(-0.0300359 0.123656 0)
(-0.0506395 0.141297 0)
(-0.0722323 0.148094 0)
(-0.0938536 0.146877 0)
(-0.11512 0.139114 0)
(-0.135855 0.12517 0)
(-0.155856 0.104672 0)
(-0.174714 0.076896 0)
(-0.191664 0.0411742 0)
(-0.205432 -0.00264489 0)
(-0.214114 -0.0536273 0)
(-0.215108 -0.109 0)
(-0.205275 -0.163259 0)
(-0.181571 -0.207312 0)
(-0.142599 -0.228399 0)
(-0.091412 -0.212471 0)
(-0.0392345 -0.151515 0)
(-0.00394123 -0.0552261 0)
(-0.0013955 0.044945 0)
(-0.0133466 0.105985 0)
(-0.0309067 0.142834 0)
(-0.0510859 0.162138 0)
(-0.0715361 0.169225 0)
(-0.0914381 0.167713 0)
(-0.110653 0.159483 0)
(-0.129303 0.145025 0)
(-0.147529 0.123879 0)
(-0.165325 0.0950581 0)
(-0.182372 0.0574604 0)
(-0.197853 0.0103143 0)
(-0.210227 -0.0462376 0)
(-0.216976 -0.11029 0)
(-0.214464 -0.176964 0)
(-0.198189 -0.236804 0)
(-0.164141 -0.274349 0)
(-0.112168 -0.268911 0)
(-0.0522395 -0.202334 0)
(-0.005911 -0.0778375 0)
(-0.00163114 0.0522335 0)
(-0.0145197 0.121303 0)
(-0.0320395 0.161682 0)
(-0.0510013 0.18172 0)
(-0.0689787 0.188251 0)
(-0.0854118 0.185835 0)
(-0.100505 0.176833 0)
(-0.11475 0.161915 0)
(-0.128699 0.140597 0)
(-0.142827 0.111706 0)
(-0.157398 0.0737715 0)
(-0.172279 0.0254167 0)
(-0.186655 -0.034131 0)
(-0.19862 -0.104238 0)
(-0.204672 -0.181479 0)
(-0.199389 -0.257372 0)
(-0.176088 -0.315244 0)
(-0.130101 -0.327967 0)
(-0.0671512 -0.263188 0)
(-0.00877773 -0.108226 0)
(-0.00219631 0.0605363 0)
(-0.0169011 0.137231 0)
(-0.0343407 0.179739 0)
(-0.0511452 0.198889 0)
(-0.0649951 0.203484 0)
(-0.0758407 0.199164 0)
(-0.0843986 0.188794 0)
(-0.0916152 0.173239 0)
(-0.0984911 0.152047 0)
(-0.10601 0.123962 0)
(-0.11506 0.0872815 0)
(-0.126305 0.0401613 0)
(-0.139921 -0.0190285 0)
(-0.155118 -0.091099 0)
(-0.169361 -0.174773 0)
(-0.177356 -0.264098 0)
(-0.170526 -0.34368 0)
(-0.139201 -0.382181 0)
(-0.081817 -0.330809 0)
(-0.0127803 -0.147791 0)
(-0.00343418 0.0709534 0)
(-0.021731 0.154469 0)
(-0.0391301 0.196541 0)
(-0.0524129 0.212191 0)
(-0.059892 0.212841 0)
(-0.062517 0.205256 0)
(-0.0617809 0.1927 0)
(-0.0591858 0.176163 0)
(-0.0561866 0.155234 0)
(-0.0542257 0.128657 0)
(-0.0547472 0.0946579 0)
(-0.0591562 0.0511643 0)
(-0.0686658 -0.00404026 0)
(-0.083896 -0.0730256 0)
(-0.104045 -0.156909 0)
(-0.125352 -0.253576 0)
(-0.139081 -0.352022 0)
(-0.131485 -0.421281 0)
(-0.0917809 -0.397765 0)
(-0.0178455 -0.196853 0)
(-0.00582754 0.0856643 0)
(-0.0307569 0.174238 0)
(-0.0476285 0.211216 0)
(-0.0546844 0.219368 0)
(-0.0522052 0.213454 0)
(-0.0430097 0.201084 0)
(-0.029702 0.185563 0)
(-0.0144086 0.167784 0)
(0.00102432 0.147288 0)
(0.0148242 0.122842 0)
(0.0251729 0.092748 0)
(0.0301383 0.0549568 0)
(0.0276767 0.00707389 0)
(0.015849 -0.0536819 0)
(-0.00660798 -0.130367 0)
(-0.038738 -0.225123 0)
(-0.0741312 -0.334192 0)
(-0.0976444 -0.433574 0)
(-0.0895443 -0.452078 0)
(-0.0229007 -0.253813 0)
(-0.00990664 0.109457 0)
(-0.0453599 0.197976 0)
(-0.0582365 0.221046 0)
(-0.0523756 0.215939 0)
(-0.0333694 0.20066 0)
(-0.00707557 0.182465 0)
(0.0227008 0.163871 0)
(0.0534004 0.14524 0)
(0.0830401 0.125858 0)
(0.109819 0.104475 0)
(0.131842 0.0795609 0)
(0.146971 0.0492929 0)
(0.152725 0.0114865 0)
(0.146304 -0.0366448 0)
(0.124754 -0.0989762 0)
(0.0857935 -0.180861 0)
(0.0310144 -0.287009 0)
(-0.027476 -0.407512 0)
(-0.0643896 -0.477694 0)
(-0.0251063 -0.314658 0)
(-0.0174437 0.152966 0)
(-0.0617228 0.224285 0)
(-0.0546749 0.216393 0)
(-0.0197382 0.191747 0)
(0.0264699 0.166497 0)
(0.0758577 0.143858 0)
(0.124821 0.124147 0)
(0.171389 0.106668 0)
(0.214189 0.0902546 0)
(0.251957 0.0736151 0)
(0.283175 0.0554848 0)
(0.305924 0.0344336 0)
(0.317766 0.00876304 0)
(0.315667 -0.0237143 0)
(0.295877 -0.0663336 0)
(0.253659 -0.125189 0)
(0.184639 -0.211407 0)
(0.0917028 -0.33364 0)
(-0.00228447 -0.452773 0)
(-0.0172397 -0.364233 0)
(-0.0236696 0.209226 0)
(-0.0370773 0.231749 0)
(0.0379762 0.176994 0)
(0.124584 0.136299 0)
(0.203378 0.107521 0)
(0.27316 0.0859967 0)
(0.334793 0.0696436 0)
(0.388868 0.0568145 0)
(0.435696 0.046048 0)
(0.475073 0.0361859 0)
(0.506501 0.0262561 0)
(0.529082 0.0152869 0)
(0.540863 0.00229636 0)
(0.539098 -0.0139494 0)
(0.519781 -0.0356322 0)
(0.477223 -0.0667593 0)
(0.403046 -0.117456 0)
(0.285052 -0.208732 0)
(0.129363 -0.33836 0)
(0.0367595 -0.339088 0)
(0.242126 0.109396 0)
(0.314434 0.0974532 0)
(0.445913 0.056933 0)
(0.551164 0.0347867 0)
(0.624986 0.0231973 0)
(0.679381 0.0160772 0)
(0.721725 0.0113671 0)
(0.755466 0.00816969 0)
(0.782437 0.00588553 0)
(0.803612 0.00409063 0)
(0.819279 0.00244631 0)
(0.829116 0.000700289 0)
(0.832241 -0.00132916 0)
(0.82718 -0.00379341 0)
(0.811487 -0.00701631 0)
(0.780924 -0.0117525 0)
(0.726627 -0.0201437 0)
(0.631135 -0.0371572 0)
(0.45966 -0.0856877 0)
(0.304521 -0.125766 0)
)
;

boundaryField
{
    movingWall
    {
        type            calculated;
        value           uniform (1 0 0);
    }
    fixedWalls
    {
        type            calculated;
        value           uniform (0 0 0);
    }
    frontAndBack
    {
        type            empty;
    }
}


// ************************************************************************* //
