/*--------------------------------*- C++ -*----------------------------------*\
  =========                 |
  \\      /  F ield         | OpenFOAM: The Open Source CFD Toolbox
   \\    /   O peration     | Website:  https://openfoam.org
    \\  /    A nd           | Version:  13
     \\/     M anipulation  |
\*---------------------------------------------------------------------------*/
FoamFile
{
    format      ascii;
    class       surfaceScalarField;
    location    "45";
    object      phi;
}
// * * * * * * * * * * * * * * * * * * * * * * * * * * * * * * * * * * * * * //

dimensions      [0 3 -1 0 0 0 0];

internalField   nonuniform List<scalar> 
760
(
4.66163e-06
-4.66117e-06
-3.88621e-05
4.35238e-05
-0.000131752
9.28893e-05
-0.000258021
0.000126269
-0.000401697
0.000143675
-0.000549355
0.000147656
-0.000689079
0.000139723
-0.000809082
0.000120003
-0.000897146
8.80645e-05
-0.000941328
4.41831e-05
-0.000931891
-9.43545e-06
-0.000864093
-6.77989e-05
-0.000741008
-0.000123087
-0.000575421
-0.000165586
-0.000389638
-0.000185782
-0.000212396
-0.000177243
-7.28897e-05
-0.000139506
7.1259e-06
-8.00147e-05
2.27842e-05
-1.56569e-05
2.27836e-05
-4.74014e-05
4.27399e-05
-0.000210295
0.000206416
-0.00047518
0.000357774
-0.000809353
0.000460438
-0.00117839
0.000512708
-0.00155061
0.000519876
-0.00189639
0.000485504
-0.0021867
0.000410319
-0.00239304
0.000294401
-0.00248945
0.000140597
-0.00245664
-4.22473e-05
-0.00228709
-0.000237346
-0.00199012
-0.00042006
-0.00159483
-0.000560881
-0.00114931
-0.000631293
-0.000714586
-0.000611968
-0.000352809
-0.000501282
-0.000111418
-0.000321406
-5.76157e-06
-0.000121314
1.70214e-05
-0.00011232
0.000155059
-0.00040716
0.000501254
-0.000838185
0.000788799
-0.00135608
0.000978335
-0.00191369
0.00107031
-0.00246731
0.00107349
-0.00297544
0.000993643
-0.00339761
0.000832492
-0.00369489
0.000591685
-0.00383285
0.000278552
-0.00378647
-8.86253e-05
-0.00354625
-0.000477576
-0.00312399
-0.000842313
-0.00255681
-0.00112806
-0.00190696
-0.00128114
-0.00125552
-0.0012634
-0.000688522
-0.00106828
-0.000276617
-0.00073331
-5.33376e-05
-0.000344595
-3.63153e-05
-0.000174131
0.00032919
-0.000596397
0.000923522
-0.00118428
0.00137668
-0.00186944
0.00166349
-0.00259354
0.00179441
-0.00330465
0.00178461
-0.00395399
0.00164298
-0.00449408
0.00137259
-0.00487936
0.000976958
-0.00506906
0.000468253
-0.00503228
-0.000125409
-0.00475429
-0.000755572
-0.00424338
-0.00135322
-0.00353682
-0.00183462
-0.00270356
-0.00211441
-0.0018404
-0.00212656
-0.00105831
-0.00185037
-0.000458379
-0.00133324
-0.000103649
-0.000699325
-0.000139964
-0.000229149
0.000558339
-0.000766567
0.00146094
-0.00149645
0.00210656
-0.00233201
0.00249906
-0.00320525
0.00266765
-0.00405881
0.00263817
-0.0048401
0.00242427
-0.00549809
0.00203058
-0.00598294
0.0014618
-0.00624813
0.000733447
-0.0062549
-0.000118643
-0.00597849
-0.00103198
-0.00541646
-0.00191525
-0.00459786
-0.00265322
-0.00359116
-0.00312111
-0.00250612
-0.00321159
-0.00148305
-0.00287344
-0.000665061
-0.00215123
-0.000158488
-0.0012059
-0.000298453
-0.000275494
0.000833834
-0.000910945
0.00209639
-0.00176273
0.00295834
-0.00272844
0.00346477
-0.00373264
0.00367186
-0.0047152
0.00362072
-0.00562274
0.00333181
-0.00640353
0.00281138
-0.00700545
0.00206372
-0.00737655
0.00110455
-0.00746824
-2.69542e-05
-0.007241
-0.00125922
-0.00667418
-0.00248206
-0.00577909
-0.00354831
-0.0046142
-0.004286
-0.00329645
-0.00452934
-0.00199824
-0.00417165
-0.00091828
-0.00323119
-0.00022539
-0.00189878
-0.000523845
-0.000311248
0.00114508
-0.00102324
0.00280839
-0.00197136
0.00390647
-0.00304149
0.00453489
-0.00415346
0.00478382
-0.00524696
0.00471423
-0.00627069
0.00435554
-0.00717507
0.00371575
-0.00790807
0.00279672
-0.00841371
0.00161018
-0.00863302
0.000192356
-0.00850901
-0.00138322
-0.00799636
-0.00299471
-0.0070784
-0.00446627
-0.00579033
-0.00557407
-0.00424387
-0.00607579
-0.00263948
-0.00577604
-0.00124349
-0.00462719
-0.000313794
-0.00282848
-0.000837639
-0.000334494
0.00147958
-0.00109735
0.00357125
-0.00211045
0.00491956
-0.00325203
0.00567647
-0.0044399
0.0059717
-0.00561605
0.00589037
-0.00673397
0.00547347
-0.00774938
0.00473116
-0.00861373
0.00366108
-0.00927022
0.00226667
-0.00965217
0.000574309
-0.00968547
-0.00134992
-0.00929712
-0.00338307
-0.0084333
-0.0053301
-0.00708961
-0.00691776
-0.00535138
-0.00781403
-0.00343056
-0.00769686
-0.00166493
-0.00639282
-0.000434037
-0.00405937
-0.00127167
-0.000343985
0.00182356
-0.00112885
0.00435611
-0.00217012
0.00596082
-0.00334205
0.00684841
-0.00456271
0.00719236
-0.00577851
0.00710617
-0.0069504
0.00664537
-0.00804285
0.00582361
-0.00901528
0.00463352
-0.00981558
0.00306697
-0.0103754
0.00113418
-0.0106091
-0.00111624
-0.0104181
-0.00357406
-0.00970674
-0.0060415
-0.0084148
-0.0082097
-0.0065725
-0.00965632
-0.00436972
-0.00989964
-0.00220052
-0.00856203
-0.000596954
-0.00566294
-0.00186863
-0.00034025
0.00216381
-0.00111763
0.00513349
-0.00214671
0.0069899
-0.0033003
0.008002
-0.00449854
0.00839059
-0.00569419
0.00830183
-0.0068582
0.00780938
-0.00796736
0.00693277
-0.00899428
0.00566043
-0.00989877
0.00397145
-0.0106202
0.00185566
-0.0110717
-0.000664803
-0.0111387
-0.00350704
-0.0106867
-0.00649351
-0.00958978
-0.00930661
-0.00779251
-0.0114536
-0.00541241
-0.0122797
-0.00285399
-0.0111205
-0.000813276
-0.00770364
-0.00268191
-0.000327067
0.00249088
-0.00107146
0.00587788
-0.0020481
0.00796653
-0.0031294
0.0090833
-0.00423938
0.00950058
-0.00533941
0.00940186
-0.00641296
0.00888292
-0.0074526
0.0079724
-0.00844915
0.00665699
-0.00938194
0.00490424
-0.0102091
0.00268277
-0.0108558
-1.80675e-05
-0.011209
-0.00315381
-0.0111086
-0.00659394
-0.010366
-0.0100492
-0.00881839
-0.0130012
-0.00645302
-0.0146451
-0.00360253
-0.0139709
-0.00109192
-0.0102143
-0.00377383
-0.000313389
0.00280427
-0.00101008
0.00657457
-0.00189939
0.00885584
-0.00285295
0.0100369
-0.00380163
0.0104493
-0.00471898
0.0103192
-0.00560422
0.00976816
-0.00646874
0.00883692
-0.00732542
0.00751367
-0.00817894
0.00575777
-0.00901509
0.00351893
-0.00978883
0.000755671
-0.0104043
-0.00253836
-0.0107032
-0.00629507
-0.0104547
-0.0102977
-0.00938846
-0.0140674
-0.00731324
-0.0167203
-0.00438051
-0.0169037
-0.00143604
-0.0131587
-0.00520987
-0.000316052
0.00312032
-0.00096994
0.00722845
-0.00174788
0.00963378
-0.00252001
0.010809
-0.00323055
0.0111598
-0.00387197
0.0109606
-0.0044639
0.0103601
-0.0050392
0.00941222
-0.00563463
0.0081091
-0.00628277
0.00640591
-0.00700273
0.00423889
-0.00778716
0.0015401
-0.00858156
-0.00174395
-0.0092577
-0.00561893
-0.00958209
-0.00997327
-0.00920687
-0.0144427
-0.00774707
-0.0181801
-0.00506362
-0.0195871
-0.001835
-0.0163874
-0.00704487
-0.000364235
0.00348455
-0.00100951
0.00787373
-0.0016652
0.0102895
-0.00220293
0.0113467
-0.00259441
0.0115513
-0.00286307
0.0112293
-0.00305571
0.0105527
-0.00322911
0.00958563
-0.00344349
0.00832348
-0.00375765
0.00672007
-0.00422312
0.00470437
-0.00487424
0.00219122
-0.00570992
-0.000908281
-0.00666176
-0.00466709
-0.0075435
-0.00909153
-0.0079923
-0.0139939
-0.00746452
-0.0187079
-0.00545996
-0.0215917
-0.00225029
-0.019597
-0.00929516
-0.000506229
0.00399078
-0.0012129
0.0085804
-0.00173994
0.0108165
-0.00197776
0.0115845
-0.00195456
0.0115281
-0.00174394
0.0110187
-0.00142883
0.0102376
-0.00109191
0.00924871
-0.000814402
0.00804597
-0.00067635
0.00658202
-0.000755726
0.00478374
-0.00112418
0.00255968
-0.00183561
-0.000196851
-0.00289925
-0.00360345
-0.0042229
-0.00776788
-0.0055123
-0.0127045
-0.00615828
-0.0180619
-0.00530639
-0.0224436
-0.00259275
-0.0223107
-0.0118879
-0.00081167
0.00480245
-0.00167655
0.00944528
-0.00203225
0.0111722
-0.00184878
0.0114011
-0.00126777
0.0109471
-0.00044013
0.010191
0.000506284
0.0092912
0.00146312
0.00829188
0.00233297
0.00717612
0.00302204
0.00589295
0.00343502
0.00437077
0.00347303
0.00252167
0.00303636
0.000239807
0.00203924
-0.00260632
0.000454374
-0.00618302
-0.00157281
-0.0106773
-0.00350929
-0.0161254
-0.00425947
-0.0216934
-0.00268901
-0.0238811
-0.0145769
-0.00134813
0.00615057
-0.00241615
0.0105133
-0.00237976
0.0111358
-0.00148658
0.0105079
-9.31595e-05
0.00955365
0.00154902
0.00854885
0.00327052
0.0075697
0.00494778
0.00661463
0.00647944
0.00564445
0.00777033
0.00460206
0.00872032
0.00342078
0.00921712
0.00202487
0.00913169
0.000325235
0.00832058
-0.0017952
0.00664475
-0.0045072
0.00405514
-0.00808769
0.000847446
-0.0129177
-0.00188187
-0.0189641
-0.00225495
-0.023508
-0.0168319
-0.00213517
0.00828574
-0.00292026
0.0112984
-0.00168333
0.00989888
0.000541051
0.0082835
0.00312418
0.00697051
0.00577512
0.00589791
0.00834045
0.00500437
0.0107232
0.00423185
0.0128489
0.0035188
0.0146441
0.00280681
0.0160233
0.00204164
0.0168795
0.00116861
0.0170761
0.000128636
0.0164417
-0.00116073
0.014761
-0.00282654
0.0118
-0.00512669
0.00746761
-0.00858532
0.00245059
-0.0139471
-0.000882384
-0.0201751
-0.0177142
-0.0024882
0.0107739
-1.28459e-05
0.00882306
0.00417773
0.00570831
0.00832871
0.00413252
0.0121248
0.00317443
0.0155345
0.00248817
0.0185583
0.00198056
0.0212013
0.00158883
0.0234598
0.00126036
0.0253105
0.000956046
0.0267065
0.000645685
0.0275704
0.000304748
0.0277897
-9.06771e-05
0.0272051
-0.000576175
0.0255799
-0.00120134
0.0225527
-0.00209949
0.0176218
-0.00365441
0.0104032
-0.00672842
0.00247612
-0.012248
-0.0152381
0.0107739
0.019597
0.0253053
0.0294378
0.0326123
0.0351004
0.037081
0.0386698
0.0399302
0.0408862
0.0415319
0.0418367
0.041746
0.0411698
0.0399685
0.037869
0.0342146
0.0274861
0.0152381
)
;

boundaryField
{
    movingWall
    {
        type            calculated;
        value           uniform 0;
    }
    fixedWalls
    {
        type            calculated;
        value           uniform 0;
    }
    frontAndBack
    {
        type            empty;
    }
}


// ************************************************************************* //
