/*--------------------------------*- C++ -*----------------------------------*\
  =========                 |
  \\      /  F ield         | OpenFOAM: The Open Source CFD Toolbox
   \\    /   O peration     | Website:  https://openfoam.org
    \\  /    A nd           | Version:  13
     \\/     M anipulation  |
\*---------------------------------------------------------------------------*/
FoamFile
{
    format      ascii;
    class       volVectorField;
    location    "45";
    object      U;
}
// * * * * * * * * * * * * * * * * * * * * * * * * * * * * * * * * * * * * * //

dimensions      [0 1 -1 0 0 0 0];

internalField   nonuniform List<vector> 
400
(
(0.000183348 -0.000187259 0)
(-0.000137036 2.96031e-05 0)
(-0.0015343 0.000268233 0)
(-0.00378941 0.000419464 0)
(-0.00655368 0.000499437 0)
(-0.00952533 0.000530008 0)
(-0.0124539 0.000520949 0)
(-0.0151053 0.000471151 0)
(-0.0172383 0.000373774 0)
(-0.0186053 0.000223374 0)
(-0.0189802 2.31813e-05 0)
(-0.0182075 -0.000209355 0)
(-0.0162622 -0.00044014 0)
(-0.0133005 -0.000622439 0)
(-0.00968048 -0.000707507 0)
(-0.00593034 -0.000660361 0)
(-0.00265798 -0.000474895 0)
(-0.000405986 -0.000181825 0)
(0.0005417 0.000137632 0)
(0.000310197 0.000303197 0)
(-4.68639e-05 0.00013601 0)
(-0.00208104 0.00193389 0)
(-0.00643968 0.00376355 0)
(-0.0125969 0.00502887 0)
(-0.0197927 0.00569509 0)
(-0.0273552 0.00583874 0)
(-0.0346781 0.0055104 0)
(-0.0411781 0.0047163 0)
(-0.046274 0.00344651 0)
(-0.0494064 0.00172052 0)
(-0.0501015 -0.000368529 0)
(-0.0480691 -0.00262553 0)
(-0.0433108 -0.00475243 0)
(-0.0362071 -0.00638518 0)
(-0.0275452 -0.0071704 0)
(-0.0184542 -0.00687084 0)
(-0.0102263 -0.00547201 0)
(-0.00403276 -0.00325723 0)
(-0.000575179 -0.000860252 0)
(0.000222239 0.000590933 0)
(-0.000353397 0.00171776 0)
(-0.00449135 0.0064717 0)
(-0.0118833 0.0106842 0)
(-0.0216245 0.0135328 0)
(-0.0326151 0.0149685 0)
(-0.0439416 0.015119 0)
(-0.0547639 0.0140736 0)
(-0.0642637 0.0118543 0)
(-0.0716372 0.00847455 0)
(-0.0761311 0.00402938 0)
(-0.0771251 -0.00121961 0)
(-0.0742475 -0.00679441 0)
(-0.0675012 -0.0120071 0)
(-0.0573682 -0.0160392 0)
(-0.0448553 -0.0180999 0)
(-0.0314383 -0.0176491 0)
(-0.0188617 -0.0146326 0)
(-0.00879425 -0.00965544 0)
(-0.00241848 -0.00405555 0)
(3.56788e-05 2.68969e-05 0)
(-0.000631207 0.00459906 0)
(-0.00681948 0.0136889 0)
(-0.0171216 0.0209448 0)
(-0.0301857 0.0256584 0)
(-0.0445698 0.0278948 0)
(-0.0591792 0.0278734 0)
(-0.0730273 0.0257333 0)
(-0.0851547 0.0215209 0)
(-0.0946204 0.0152883 0)
(-0.100541 0.00723247 0)
(-0.102173 -0.00218002 0)
(-0.099032 -0.0121405 0)
(-0.0910274 -0.0215049 0)
(-0.0785969 -0.0289066 0)
(-0.0628023 -0.0329917 0)
(-0.045334 -0.0327723 0)
(-0.0283462 -0.0280332 0)
(-0.0140902 -0.0196605 0)
(-0.00443339 -0.00975138 0)
(-0.000124791 -0.00151378 0)
(-0.000870576 0.00866344 0)
(-0.00890204 0.0233573 0)
(-0.0218458 0.0342138 0)
(-0.0379106 0.0409647 0)
(-0.055334 0.0439633 0)
(-0.0728852 0.0435968 0)
(-0.0894981 0.0400818 0)
(-0.104145 0.0334948 0)
(-0.11581 0.0239235 0)
(-0.123512 0.0116559 0)
(-0.126375 -0.00265387 0)
(-0.123733 -0.017881 0)
(-0.115277 -0.032417 0)
(-0.101236 -0.0442846 0)
(-0.0825609 -0.0514244 0)
(-0.0610407 -0.052179 0)
(-0.0392461 -0.0459242 0)
(-0.0201797 -0.0336553 0)
(-0.00668555 -0.018229 0)
(-0.000271219 -0.00408928 0)
(-0.00106776 0.0137498 0)
(-0.0106572 0.035174 0)
(-0.0258628 0.0501375 0)
(-0.0445134 0.059085 0)
(-0.064579 0.0628323 0)
(-0.0847411 0.0620261 0)
(-0.103912 0.0569979 0)
(-0.121058 0.0478571 0)
(-0.13514 0.0347034 0)
(-0.145108 0.0178679 0)
(-0.149936 -0.00187501 0)
(-0.148709 -0.0231539 0)
(-0.14078 -0.043937 0)
(-0.125994 -0.0616003 0)
(-0.104985 -0.0732153 0)
(-0.079471 -0.0761428 0)
(-0.0523854 -0.0689428 0)
(-0.0276465 -0.0523803 0)
(-0.00945641 -0.0300161 0)
(-0.000446546 -0.00785003 0)
(-0.00121511 0.0196646 0)
(-0.01201 0.0487539 0)
(-0.0289938 0.0682661 0)
(-0.0497019 0.0795751 0)
(-0.0719068 0.0841133 0)
(-0.0942535 0.0828805 0)
(-0.115687 0.0763652 0)
(-0.135227 0.06471 0)
(-0.151866 0.0479878 0)
(-0.164525 0.0264961 0)
(-0.172038 0.00102078 0)
(-0.173216 -0.0269443 0)
(-0.16698 -0.0550439 0)
(-0.152626 -0.0800258 0)
(-0.130231 -0.0979512 0)
(-0.10116 -0.10483 0)
(-0.0685053 -0.0978186 0)
(-0.0371519 -0.0768515 0)
(-0.0131072 -0.0459639 0)
(-0.000702272 -0.0131256 0)
(-0.00130393 0.0261757 0)
(-0.0128884 0.0636241 0)
(-0.0310661 0.088032 0)
(-0.0531715 0.101856 0)
(-0.0768547 0.107272 0)
(-0.100772 0.105721 0)
(-0.123951 0.0978959 0)
(-0.145524 0.083975 0)
(-0.164584 0.0639626 0)
(-0.180086 0.0380324 0)
(-0.190793 0.00684596 0)
(-0.195271 -0.0281511 0)
(-0.191992 -0.0644526 0)
(-0.179592 -0.0982957 0)
(-0.157339 -0.124687 0)
(-0.125854 -0.137941 0)
(-0.0879476 -0.133078 0)
(-0.0492704 -0.10822 0)
(-0.0180329 -0.0672437 0)
(-0.00110166 -0.0204499 0)
(-0.0013295 0.033016 0)
(-0.0132459 0.0792326 0)
(-0.0319491 0.10875 0)
(-0.0546574 0.12519 0)
(-0.0789649 0.131568 0)
(-0.103579 0.129852 0)
(-0.127658 0.120993 0)
(-0.150505 0.10522 0)
(-0.17139 0.0824385 0)
(-0.18941 0.0526169 0)
(-0.203366 0.0161522 0)
(-0.211708 -0.0257564 0)
(-0.212548 -0.0707006 0)
(-0.20385 -0.11466 0)
(-0.183886 -0.151728 0)
(-0.15208 -0.174345 0)
(-0.110287 -0.174629 0)
(-0.064299 -0.147488 0)
(-0.024632 -0.0952676 0)
(-0.0017279 -0.0305741 0)
(-0.00129852 0.0399068 0)
(-0.0130994 0.0949824 0)
(-0.0316222 0.129639 0)
(-0.05403 0.148675 0)
(-0.0779128 0.156021 0)
(-0.102064 0.154254 0)
(-0.125812 0.144649 0)
(-0.148691 0.127523 0)
(-0.170236 0.102679 0)
(-0.189803 0.0698301 0)
(-0.206407 0.0289945 0)
(-0.218577 -0.019074 0)
(-0.224283 -0.0723651 0)
(-0.220966 -0.126997 0)
(-0.20586 -0.17655 0)
(-0.176823 -0.211741 0)
(-0.133921 -0.221241 0)
(-0.0819806 -0.19504 0)
(-0.0332513 -0.131498 0)
(-0.00269494 -0.0444739 0)
(-0.00123899 0.0466064 0)
(-0.0125817 0.1103 0)
(-0.0302639 0.149873 0)
(-0.0514187 0.171272 0)
(-0.0736688 0.179412 0)
(-0.0959335 0.17757 0)
(-0.117756 0.167418 0)
(-0.13896 0.149422 0)
(-0.159426 0.123315 0)
(-0.178892 0.088553 0)
(-0.196768 0.0447184 0)
(-0.211916 -0.00803439 0)
(-0.222478 -0.0684136 0)
(-0.225698 -0.133155 0)
(-0.217977 -0.195989 0)
(-0.195478 -0.24654 0)
(-0.155737 -0.270037 0)
(-0.101128 -0.249975 0)
(-0.0440582 -0.177082 0)
(-0.00415721 -0.0633382 0)
(-0.00121358 0.0529923 0)
(-0.0120048 0.124752 0)
(-0.0283513 0.168677 0)
(-0.0473382 0.191872 0)
(-0.0666554 0.200342 0)
(-0.0854176 0.198159 0)
(-0.103453 0.187479 0)
(-0.120932 0.168979 0)
(-0.138143 0.142388 0)
(-0.155302 0.106952 0)
(-0.172356 0.0618336 0)
(-0.188758 0.00651718 0)
(-0.203153 -0.0586382 0)
(-0.213044 -0.131494 0)
(-0.214517 -0.206781 0)
(-0.202312 -0.274148 0)
(-0.171073 -0.316267 0)
(-0.119245 -0.309377 0)
(-0.0567942 -0.232238 0)
(-0.00631209 -0.0885084 0)
(-0.00134116 0.0591905 0)
(-0.0119443 0.138199 0)
(-0.0267607 0.185437 0)
(-0.0427816 0.209373 0)
(-0.0578327 0.217303 0)
(-0.0713679 0.214206 0)
(-0.0836171 0.202776 0)
(-0.0951697 0.183959 0)
(-0.106763 0.157543 0)
(-0.119122 0.122647 0)
(-0.132803 0.0780969 0)
(-0.147976 0.022757 0)
(-0.164102 -0.0440054 0)
(-0.179459 -0.12154 0)
(-0.190527 -0.206405 0)
(-0.191403 -0.289761 0)
(-0.17415 -0.353617 0)
(-0.132333 -0.367797 0)
(-0.0703932 -0.295373 0)
(-0.00938103 -0.121296 0)
(-0.00183737 0.0657737 0)
(-0.0133573 0.150996 0)
(-0.026851 0.199805 0)
(-0.0392221 0.22273 0)
(-0.0486162 0.228738 0)
(-0.0551081 0.223816 0)
(-0.0595239 0.21119 0)
(-0.0629594 0.192062 0)
(-0.0666129 0.166311 0)
(-0.0716934 0.133011 0)
(-0.0793271 0.0907776 0)
(-0.0904132 0.0380177 0)
(-0.105362 -0.0267763 0)
(-0.123625 -0.104472 0)
(-0.142872 -0.194003 0)
(-0.157749 -0.289555 0)
(-0.158892 -0.375203 0)
(-0.135055 -0.417316 0)
(-0.0825026 -0.362042 0)
(-0.0135171 -0.162523 0)
(-0.00307469 0.0740541 0)
(-0.0177307 0.164191 0)
(-0.030447 0.2117 0)
(-0.0383443 0.230875 0)
(-0.040375 0.232984 0)
(-0.0377431 0.225026 0)
(-0.0321523 0.21061 0)
(-0.0253032 0.191075 0)
(-0.0188411 0.166344 0)
(-0.0143762 0.135485 0)
(-0.0134882 0.097029 0)
(-0.0176855 0.049149 0)
(-0.0282702 -0.0102186 0)
(-0.0460071 -0.0831421 0)
(-0.0703609 -0.170933 0)
(-0.0978568 -0.271832 0)
(-0.119629 -0.375012 0)
(-0.121057 -0.448441 0)
(-0.0889799 -0.424292 0)
(-0.0184947 -0.211712 0)
(-0.00557079 0.0865805 0)
(-0.0270695 0.17962 0)
(-0.0392848 0.220945 0)
(-0.040818 0.23226 0)
(-0.0326703 0.227887 0)
(-0.0180259 0.215533 0)
(0.00020519 0.198779 0)
(0.0196592 0.178817 0)
(0.0383088 0.155476 0)
(0.0542729 0.12779 0)
(0.0656878 0.0943003 0)
(0.0706336 0.0531704 0)
(0.067127 0.00218199 0)
(0.053246 -0.0613341 0)
(0.0275926 -0.140426 0)
(-0.0092178 -0.237455 0)
(-0.0511296 -0.349134 0)
(-0.0830651 -0.451561 0)
(-0.0834019 -0.471128 0)
(-0.0231118 -0.26673 0)
(-0.0098918 0.10871 0)
(-0.0429335 0.199612 0)
(-0.0520988 0.225812 0)
(-0.0415687 0.223384 0)
(-0.0175541 0.209685 0)
(0.0136708 0.191932 0)
(0.0479256 0.172818 0)
(0.0823763 0.152908 0)
(0.114857 0.131694 0)
(0.143466 0.108115 0)
(0.1663 0.0807827 0)
(0.181284 0.0480367 0)
(0.186049 0.00787122 0)
(0.177894 -0.0423155 0)
(0.153871 -0.106208 0)
(0.111608 -0.189105 0)
(0.0524102 -0.295987 0)
(-0.0124518 -0.417734 0)
(-0.0567189 -0.48895 0)
(-0.0246512 -0.324041 0)
(-0.0178118 0.151666 0)
(-0.061279 0.223637 0)
(-0.0522089 0.217695 0)
(-0.014241 0.195003 0)
(0.0355995 0.171147 0)
(0.0888589 0.149172 0)
(0.141547 0.129473 0)
(0.191373 0.111458 0)
(0.236738 0.0940902 0)
(0.276241 0.07619 0)
(0.30835 0.0565258 0)
(0.331198 0.0337761 0)
(0.342406 0.0064257 0)
(0.338983 -0.0275075 0)
(0.317122 -0.0711836 0)
(0.272243 -0.130541 0)
(0.20015 -0.216492 0)
(0.103009 -0.338353 0)
(0.00437221 -0.456785 0)
(-0.0159593 -0.369325 0)
(-0.0242247 0.208263 0)
(-0.0379164 0.230355 0)
(0.0372795 0.17654 0)
(0.125083 0.136876 0)
(0.205888 0.109094 0)
(0.278104 0.0882559 0)
(0.342393 0.0721605 0)
(0.399037 0.0592189 0)
(0.44808 0.0480508 0)
(0.489289 0.0375248 0)
(0.521988 0.0267025 0)
(0.544945 0.0147373 0)
(0.556279 0.000757205 0)
(0.55334 -0.016309 0)
(0.532317 -0.0383005 0)
(0.487748 -0.0691582 0)
(0.411144 -0.119102 0)
(0.29089 -0.209351 0)
(0.133134 -0.338288 0)
(0.038776 -0.340365 0)
(0.241885 0.109132 0)
(0.313452 0.0971154 0)
(0.444316 0.0569666 0)
(0.549629 0.0351076 0)
(0.624072 0.0237383 0)
(0.679632 0.0167086 0)
(0.723525 0.0119786 0)
(0.758845 0.00869237 0)
(0.787141 0.00625307 0)
(0.80921 0.0042297 0)
(0.825229 0.00232801 0)
(0.83483 0.000340111 0)
(0.83715 -0.00191029 0)
(0.830774 -0.00459149 0)
(0.813399 -0.00802897 0)
(0.781135 -0.0128846 0)
(0.725691 -0.0212286 0)
(0.629862 -0.0380918 0)
(0.459268 -0.0855488 0)
(0.304894 -0.125698 0)
)
;

boundaryField
{
    movingWall
    {
        type            fixedValue;
        value           uniform (1 0 0);
    }
    fixedWalls
    {
        type            fixedValue;
        value           uniform (0 0 0);
    }
    frontAndBack
    {
        type            empty;
    }
}


// ************************************************************************* //
