/*--------------------------------*- C++ -*----------------------------------*\
  =========                 |
  \\      /  F ield         | OpenFOAM: The Open Source CFD Toolbox
   \\    /   O peration     | Website:  https://openfoam.org
    \\  /    A nd           | Version:  13
     \\/     M anipulation  |
\*---------------------------------------------------------------------------*/
FoamFile
{
    format      ascii;
    class       volScalarField;
    location    "44";
    object      p;
}
// * * * * * * * * * * * * * * * * * * * * * * * * * * * * * * * * * * * * * //

dimensions      [0 2 -2 0 0 0 0];

internalField   nonuniform List<scalar> 
400
(
2.43652e-08
-0.000572513
-0.00121612
-0.001719
-0.00195934
-0.00188481
-0.0014706
-0.000705653
0.000401167
0.00180583
0.00341457
0.0050749
0.00659094
0.007751
0.00837969
0.00839552
0.00785523
0.00696879
0.0060479
0.00549422
0.000569858
-2.0415e-05
-0.000569788
-0.000957161
-0.00113216
-0.00106212
-0.000726107
-0.000109367
0.000788646
0.00193932
0.00326966
0.00466001
0.00594059
0.00692971
0.00747414
0.00750168
0.00705911
0.00631873
0.00554314
0.00497252
0.0012456
0.000492867
-8.6829e-05
-0.000441476
-0.000606275
-0.000576429
-0.000337417
0.000132459
0.000849567
0.00180676
0.00295473
0.00419167
0.00536432
0.00629371
0.00681915
0.0068528
0.00642065
0.00566808
0.00480882
0.00403707
0.00174051
0.00076359
7.35494e-05
-0.000322051
-0.000537235
-0.000592861
-0.000478367
-0.000160292
0.000399901
0.00122196
0.00228157
0.00349275
0.0047016
0.00570963
0.0063193
0.00639806
0.00593342
0.00505047
0.0039483
0.00284433
0.0017954
0.000595647
-0.0002278
-0.000704932
-0.00101825
-0.00120734
-0.00125948
-0.00112312
-0.000730614
-2.79364e-05
0.000991652
0.00226351
0.00362998
0.00486117
0.0056986
0.00593225
0.00548032
0.00443541
0.00299985
0.001462
0.00119463
-0.000203087
-0.00116336
-0.00175279
-0.00221151
-0.00259076
-0.00286936
-0.0029713
-0.00279202
-0.00223301
-0.00124414
0.000150453
0.00179279
0.00341978
0.00469016
0.00527467
0.00497184
0.00380561
0.00197894
-0.000104127
-0.000241698
-0.00180015
-0.00289231
-0.00362228
-0.00427778
-0.00491671
-0.00550514
-0.00593761
-0.00606463
-0.00572851
-0.00480697
-0.00328523
-0.00127039
0.000946644
0.00292624
0.00416981
0.00427921
0.00313549
0.000902545
-0.00185633
-0.00265201
-0.00432641
-0.0055413
-0.00643933
-0.00734717
-0.00832779
-0.00933394
-0.0102288
-0.0108113
-0.0108505
-0.0101336
-0.00853904
-0.00610711
-0.0031123
-8.64744e-05
0.00225499
0.0032126
0.00239522
-0.000177431
-0.00375302
-0.00612141
-0.00786176
-0.00918478
-0.0102718
-0.011483
-0.0128894
-0.0144345
-0.0159529
-0.0171897
-0.0178277
-0.0175354
-0.0160428
-0.0132531
-0.00935756
-0.00493608
-0.000941465
0.00150803
0.00155452
-0.00113722
-0.00564687
-0.0106715
-0.0124237
-0.0138275
-0.0151021
-0.0166422
-0.0185358
-0.0207272
-0.0230305
-0.0251405
-0.0266492
-0.0270841
-0.0259776
-0.0230343
-0.0182542
-0.0121678
-0.0059222
-0.00114235
0.000602956
-0.00173146
-0.00719522
-0.0162605
-0.0179654
-0.0193958
-0.0208062
-0.0226415
-0.0250234
-0.0279114
-0.0311115
-0.0342775
-0.0369139
-0.0383954
-0.0380068
-0.0352842
-0.0298336
-0.0220052
-0.0130065
-0.00495989
-0.000375643
-0.00151611
-0.00772075
-0.022803
-0.0243901
-0.0257427
-0.0271485
-0.0291435
-0.0319107
-0.0354425
-0.0395494
-0.0438549
-0.0477847
-0.05058
-0.0513772
-0.0491635
-0.043394
-0.0339889
-0.0219778
-0.00980601
-0.00102485
0.000279961
-0.00600008
-0.0302226
-0.0315863
-0.0326696
-0.0337921
-0.0356681
-0.0385799
-0.042569
-0.0474551
-0.0528343
-0.0580627
-0.0622511
-0.0643106
-0.0630223
-0.0573321
-0.0466929
-0.031705
-0.0148012
-0.000417161
0.00496552
2.27184e-05
-0.03856
-0.0394895
-0.0399613
-0.040327
-0.041635
-0.0443096
-0.0484456
-0.0538594
-0.0601059
-0.0664655
-0.0719295
-0.0752216
-0.0748704
-0.0694214
-0.0578071
-0.0400022
-0.0180233
0.00327946
0.0146985
0.0135556
-0.0481748
-0.048157
-0.0474035
-0.0462842
-0.0464121
-0.0483713
-0.0522815
-0.0579132
-0.0647394
-0.0719354
-0.0783607
-0.0825613
-0.0828323
-0.0773739
-0.0646453
-0.043937
-0.0165435
0.0130188
0.032931
0.0392807
-0.060235
-0.0579577
-0.0548673
-0.0512135
-0.0494272
-0.0501785
-0.0535204
-0.0590937
-0.0662201
-0.0739188
-0.0808795
-0.0854535
-0.085707
-0.0795199
-0.064942
-0.0406113
-0.00697894
0.0328167
0.0647937
0.0836767
-0.0774815
-0.0694733
-0.0620875
-0.0545495
-0.0501391
-0.0493251
-0.0519045
-0.0572611
-0.0644863
-0.0723851
-0.07944
-0.0837784
-0.0832185
-0.0752831
-0.0576215
-0.0282114
0.0133524
0.0666609
0.115752
0.154807
-0.108926
-0.0850402
-0.0697734
-0.0563917
-0.0485411
-0.0458812
-0.0476243
-0.0527151
-0.0599173
-0.0677771
-0.0745524
-0.0781402
-0.0761045
-0.0655427
-0.0436433
-0.00744515
0.044743
0.114933
0.188078
0.263281
-0.168693
-0.100746
-0.0730932
-0.0522882
-0.0413103
-0.0376998
-0.0394421
-0.0448655
-0.0524159
-0.060447
-0.067074
-0.0700479
-0.0666876
-0.0537885
-0.0278899
0.0154098
0.0800715
0.17276
0.285854
0.445985
-0.402754
-0.139031
-0.0734592
-0.0447302
-0.0305719
-0.0266176
-0.0290857
-0.0353736
-0.0436542
-0.0522075
-0.0591241
-0.0621457
-0.0586176
-0.0452141
-0.0174509
0.0310786
0.108495
0.236657
0.427487
0.79368
)
;

boundaryField
{
    movingWall
    {
        type            zeroGradient;
    }
    fixedWalls
    {
        type            zeroGradient;
    }
    frontAndBack
    {
        type            empty;
    }
}


// ************************************************************************* //
