/*--------------------------------*- C++ -*----------------------------------*\
  =========                 |
  \\      /  F ield         | OpenFOAM: The Open Source CFD Toolbox
   \\    /   O peration     | Website:  https://openfoam.org
    \\  /    A nd           | Version:  13
     \\/     M anipulation  |
\*---------------------------------------------------------------------------*/
FoamFile
{
    format      ascii;
    class       surfaceScalarField;
    location    "44";
    object      phi;
}
// * * * * * * * * * * * * * * * * * * * * * * * * * * * * * * * * * * * * * //

dimensions      [0 3 -1 0 0 0 0];

internalField   nonuniform List<scalar> 
760
(
4.65315e-06
-4.65264e-06
-3.8863e-05
4.35163e-05
-0.000131729
9.28647e-05
-0.000257962
0.000126233
-0.000401594
0.000143632
-0.000549206
0.00014761
-0.000688885
0.000139678
-0.000808847
0.000119964
-0.000896883
8.80361e-05
-0.000941053
4.41713e-05
-0.000931625
-9.42641e-06
-0.000863858
-6.77682e-05
-0.000740822
-0.000123037
-0.000575297
-0.000165525
-0.000389576
-0.00018572
-0.000212384
-0.000177192
-7.2908e-05
-0.000139476
7.10043e-06
-8.00074e-05
2.27696e-05
-1.56675e-05
2.27688e-05
-4.73903e-05
4.27372e-05
-0.000210232
0.000206357
-0.000475033
0.000357665
-0.000809099
0.000460295
-0.00117801
0.000512546
-0.00155011
0.000519709
-0.00189578
0.000485347
-0.00218601
0.00041019
-0.00239228
0.000294316
-0.00248868
0.000140571
-0.0024559
-4.22044e-05
-0.00228644
-0.000237235
-0.00198959
-0.000419891
-0.00159444
-0.000560678
-0.00114907
-0.000631088
-0.000714462
-0.000611793
-0.000352773
-0.000501164
-0.000111424
-0.000321355
-5.77491e-06
-0.000121318
1.69932e-05
-0.00011228
0.000155017
-0.000407018
0.000501092
-0.000837895
0.000788541
-0.00135562
0.000978015
-0.00191303
0.00106996
-0.00246647
0.00107314
-0.00297445
0.000993325
-0.00339649
0.000832238
-0.0036937
0.000591525
-0.00383164
0.000278514
-0.00378532
-8.85279e-05
-0.00354521
-0.000477346
-0.00312313
-0.000841973
-0.00255615
-0.00112766
-0.00190651
-0.00128073
-0.00125526
-0.00126304
-0.000688406
-0.00106802
-0.000276587
-0.000733172
-5.33414e-05
-0.000344566
-3.63471e-05
-0.000174063
0.00032908
-0.000596175
0.000923206
-0.00118385
0.00137621
-0.00186877
0.00166294
-0.00259263
0.00179382
-0.00330351
0.00178403
-0.00395265
0.00164246
-0.00449259
0.00137219
-0.00487778
0.000976713
-0.00506747
0.000468203
-0.00503076
-0.000125244
-0.00475291
-0.0007552
-0.00424221
-0.00135267
-0.00353589
-0.00183397
-0.00270289
-0.00211373
-0.00183999
-0.00212594
-0.00105809
-0.00184991
-0.000458301
-0.00133297
-0.000103639
-0.000699227
-0.000139986
-0.000229056
0.000558136
-0.000766278
0.00146043
-0.0014959
0.00210583
-0.00233118
0.00249822
-0.00320414
0.00266678
-0.00405743
0.00263733
-0.0048385
0.00242353
-0.00549632
0.00203001
-0.00598107
0.00146146
-0.00624626
0.000733381
-0.00625309
-0.000118412
-0.00597683
-0.00103146
-0.00541501
-0.00191449
-0.00459668
-0.0026523
-0.00359028
-0.00312013
-0.00250554
-0.00321068
-0.00148272
-0.00287272
-0.000664929
-0.00215076
-0.000158463
-0.00120569
-0.00029845
-0.000275385
0.000833523
-0.000910613
0.00209566
-0.00176211
0.00295733
-0.00272751
0.00346362
-0.00373141
0.00367068
-0.00471369
0.0036196
-0.00562099
0.00333084
-0.00640161
0.00281063
-0.00700342
0.00206327
-0.0073745
0.00110446
-0.00746624
-2.66709e-05
-0.00723913
-0.00125857
-0.00667252
-0.00248109
-0.0057777
-0.00354712
-0.00461312
-0.00428471
-0.0032957
-0.0045281
-0.00199781
-0.00417061
-0.000918089
-0.00323048
-0.000225347
-0.00189843
-0.000523799
-0.000311135
0.00114466
-0.0010229
0.00280742
-0.00197073
0.00390517
-0.00304055
0.00453343
-0.00415221
0.00478234
-0.00524545
0.00471283
-0.00626895
0.00435434
-0.00717316
0.00371484
-0.00790605
0.00279617
-0.00841165
0.00161005
-0.00863098
0.000192668
-0.00850707
-0.00138248
-0.00799459
-0.00299357
-0.00707687
-0.00446484
-0.00578911
-0.00557248
-0.00424299
-0.00607421
-0.00263894
-0.00577467
-0.00124323
-0.00462619
-0.000313733
-0.00282793
-0.000837532
-0.000334392
0.00147905
-0.00109704
0.00357008
-0.00210987
0.00491799
-0.00325117
0.00567473
-0.00443878
0.00596994
-0.00561468
0.00588874
-0.0067324
0.00547207
-0.00774766
0.00473009
-0.00861191
0.00366043
-0.00926835
0.00226649
-0.0096503
0.000574626
-0.00968367
-0.00134911
-0.00929543
-0.00338182
-0.00843178
-0.00532849
-0.00708833
-0.00691593
-0.00535041
-0.00781214
-0.00342993
-0.00769514
-0.00166462
-0.0063915
-0.000433956
-0.0040586
-0.00127149
-0.000343909
0.00182296
-0.00112861
0.00435478
-0.00216967
0.00595905
-0.00334138
0.00684644
-0.00456183
0.00719039
-0.00577744
0.00710435
-0.00694918
0.00664382
-0.00804152
0.00582243
-0.00901388
0.00463279
-0.00981414
0.00306675
-0.010374
0.00113449
-0.0106077
-0.00111542
-0.0104168
-0.00357277
-0.00970544
-0.00603981
-0.00841364
-0.00820772
-0.00657156
-0.00965422
-0.00436907
-0.00989764
-0.00220017
-0.0085604
-0.000596854
-0.00566192
-0.00186834
-0.000340211
0.00216317
-0.0011175
0.00513207
-0.00214646
0.006988
-0.0032999
0.00799989
-0.00449801
0.0083885
-0.00569356
0.0082999
-0.00685749
0.00780775
-0.0079666
0.00693154
-0.00899349
0.00565968
-0.00989797
0.00397123
-0.0106194
0.00185596
-0.0110709
-0.000663992
-0.0111379
-0.00350577
-0.0106858
-0.00649183
-0.00958894
-0.00930462
-0.00779175
-0.0114514
-0.00541182
-0.0122776
-0.00285364
-0.0111186
-0.000813162
-0.0077024
-0.00268151
-0.000327076
0.00249025
-0.00107146
0.00587645
-0.00204807
0.00796461
-0.00312934
0.00908116
-0.0042393
0.00949845
-0.00533931
0.00939992
-0.00641286
0.0088813
-0.00745253
0.0079712
-0.00844912
0.00665628
-0.00938194
0.00490405
-0.0102091
0.00268309
-0.0108558
-1.72776e-05
-0.0112089
-0.0031526
-0.0111084
-0.00659237
-0.0103657
-0.0100474
-0.00881798
-0.0129991
-0.00645261
-0.0146429
-0.00360224
-0.013969
-0.00109181
-0.0102128
-0.00377332
-0.000313446
0.00280369
-0.00101022
0.00657322
-0.00189962
0.008854
-0.00285326
0.0100348
-0.00380202
0.0104472
-0.00471945
0.0103173
-0.00560479
0.00976663
-0.0064694
0.00883582
-0.00732617
0.00751305
-0.00817977
0.00575765
-0.00901596
0.00351928
-0.00978967
0.000756441
-0.010405
-0.00253724
-0.0107037
-0.00629367
-0.0104551
-0.010296
-0.00938855
-0.0140656
-0.00731313
-0.0167184
-0.00438034
-0.0169017
-0.00143594
-0.0131572
-0.00520926
-0.000316155
0.00311984
-0.000970219
0.00722728
-0.00174836
0.00963214
-0.00252068
0.0108071
-0.0032314
0.0111579
-0.00387299
0.0109589
-0.00446508
0.0103587
-0.00504052
0.00941126
-0.00563608
0.00810861
-0.00628431
0.00640588
-0.00700432
0.00423928
-0.00778872
0.00154085
-0.00858303
-0.00174293
-0.00925898
-0.00561772
-0.00958308
-0.00997193
-0.0092075
-0.0144412
-0.00774735
-0.0181785
-0.00506364
-0.0195855
-0.00183494
-0.0163859
-0.0070442
-0.000364375
0.00348422
-0.0010099
0.00787281
-0.00166588
0.0102881
-0.0022039
0.0113451
-0.00259565
0.0115497
-0.00286455
0.0112278
-0.00305738
0.0105515
-0.00323095
0.00958484
-0.00344544
0.00832311
-0.00375967
0.00672011
-0.00422517
0.00470478
-0.00487626
0.00219193
-0.00571183
-0.000907366
-0.00666349
-0.00466606
-0.00754495
-0.00909047
-0.00799337
-0.0139928
-0.00746516
-0.0187067
-0.0054602
-0.0215904
-0.0022503
-0.0195958
-0.0092945
-0.000506389
0.0039906
-0.00121336
0.00857977
-0.00174075
0.0108155
-0.00197893
0.0115833
-0.00195605
0.0115268
-0.00174571
0.0110175
-0.00143082
0.0102367
-0.00109405
0.00924807
-0.000816624
0.00804568
-0.000678595
0.00658208
-0.000757941
0.00478413
-0.00112632
0.00256032
-0.00183763
-0.000196054
-0.0029011
-0.0036026
-0.00422451
-0.00776706
-0.00551358
-0.0127037
-0.00615915
-0.0180611
-0.00530682
-0.0224428
-0.00259284
-0.0223098
-0.0118873
-0.000811824
0.00480243
-0.00167701
0.00944495
-0.00203308
0.0111716
-0.00184999
0.0114002
-0.00126934
0.0109461
-0.000441983
0.0101901
0.000504221
0.00929045
0.00146092
0.00829136
0.00233073
0.00717587
0.00301983
0.00589299
0.00343289
0.00437108
0.00347102
0.00252218
0.00303451
0.000240452
0.00203756
-0.00260564
0.000452894
-0.00618239
-0.00157404
-0.0106768
-0.0035102
-0.016125
-0.00425999
-0.021693
-0.00268918
-0.0238806
-0.0145765
-0.00134823
0.00615066
-0.0024165
0.0105132
-0.00238045
0.0111355
-0.00148762
0.0105074
-9.4532e-05
0.00955306
0.00154737
0.00854825
0.00326866
0.00756916
0.0049458
0.00661423
0.00647742
0.00564424
0.00776835
0.00460206
0.00871845
0.00342098
0.0092154
0.00202523
0.00913015
0.0003257
0.00831923
-0.00179471
0.00664359
-0.00450676
0.00405417
-0.00808735
0.000846697
-0.0129175
-0.00188235
-0.0189639
-0.00225513
-0.0235079
-0.0168316
-0.00213519
0.00828585
-0.00292041
0.0112985
-0.0016837
0.0098988
0.000540411
0.00828329
0.00312326
0.00697021
0.00577394
0.00589757
0.00833906
0.00500404
0.0107217
0.00423159
0.0128473
0.00351865
0.0146425
0.0028068
0.0160218
0.00204175
0.0168782
0.00116883
0.017075
0.000128914
0.0164407
-0.00116044
0.0147602
-0.0028263
0.0117994
-0.00512652
0.00746715
-0.00858525
0.00245028
-0.013947
-0.000882534
-0.020175
-0.0177142
-0.00248814
0.010774
-1.28016e-05
0.00882312
0.0041777
0.00570831
0.00832853
0.00413246
0.0121244
0.00317432
0.0155339
0.00248804
0.0185575
0.00198043
0.0212004
0.00158874
0.0234587
0.00126032
0.0253095
0.000956058
0.0267055
0.000645741
0.0275695
0.000304839
0.0277889
-9.05667e-05
0.0272046
-0.00057607
0.0255795
-0.00120126
0.0225525
-0.00209945
0.0176217
-0.00365441
0.010403
-0.00672844
0.00247605
-0.012248
-0.0152381
0.010774
0.0195971
0.0253054
0.0294379
0.0326122
0.0351002
0.0370807
0.0386694
0.0399297
0.0408858
0.0415315
0.0418364
0.0417458
0.0411697
0.0399685
0.037869
0.0342146
0.0274862
0.0152381
)
;

boundaryField
{
    movingWall
    {
        type            calculated;
        value           uniform 0;
    }
    fixedWalls
    {
        type            calculated;
        value           uniform 0;
    }
    frontAndBack
    {
        type            empty;
    }
}


// ************************************************************************* //
