/*--------------------------------*- C++ -*----------------------------------*\
  =========                 |
  \\      /  F ield         | OpenFOAM: The Open Source CFD Toolbox
   \\    /   O peration     | Website:  https://openfoam.org
    \\  /    A nd           | Version:  13
     \\/     M anipulation  |
\*---------------------------------------------------------------------------*/
FoamFile
{
    format      ascii;
    class       surfaceScalarField;
    location    "44";
    object      phi_0;
}
// * * * * * * * * * * * * * * * * * * * * * * * * * * * * * * * * * * * * * //

dimensions      [0 3 -1 0 0 0 0];

internalField   nonuniform List<scalar> 
760
(
4.64311e-06
-4.64294e-06
-3.88644e-05
4.35077e-05
-0.000131701
9.28369e-05
-0.000257892
0.000126191
-0.000401475
0.000143583
-0.000549032
0.000147557
-0.000688657
0.000139625
-0.000808575
0.000119917
-0.000896577
8.80029e-05
-0.000940734
4.41568e-05
-0.000931317
-9.41729e-06
-0.000863585
-6.77323e-05
-0.000740606
-0.000122979
-0.000575152
-0.000165454
-0.000389503
-0.000185649
-0.00021237
-0.000177133
-7.29291e-05
-0.000139441
7.07054e-06
-8e-05
2.27516e-05
-1.56813e-05
2.27519e-05
-4.73773e-05
4.27343e-05
-0.000210159
0.000206289
-0.000474863
0.000357541
-0.000808801
0.00046013
-0.00117758
0.000512358
-0.00154954
0.000519516
-0.00189508
0.000485166
-0.0021852
0.000410039
-0.00239141
0.000294215
-0.00248779
0.000140538
-0.00245505
-4.21577e-05
-0.00228568
-0.000237106
-0.00198896
-0.000419693
-0.00159398
-0.00056044
-0.00114878
-0.000630849
-0.000714319
-0.000611591
-0.000352732
-0.000501027
-0.000111434
-0.000321296
-5.79173e-06
-0.000121323
1.69609e-05
-0.000112235
0.000154969
-0.000406853
0.000500908
-0.000837559
0.000788245
-0.00135507
0.000977645
-0.00191227
0.00106956
-0.0024655
0.00107274
-0.00297329
0.000992956
-0.00339519
0.00083194
-0.00369231
0.000591336
-0.00383024
0.000278467
-0.00378398
-8.84153e-05
-0.00354401
-0.000477078
-0.00312212
-0.000841577
-0.00255538
-0.00112718
-0.00190598
-0.00128025
-0.00125496
-0.00126261
-0.000688271
-0.00106771
-0.000276555
-0.000733013
-5.33454e-05
-0.000344531
-3.6384e-05
-0.000173983
0.000328952
-0.000595917
0.000922841
-0.00118335
0.00137567
-0.00186799
0.00166229
-0.00259157
0.00179313
-0.00330218
0.00178336
-0.00395109
0.00164186
-0.00449086
0.00137172
-0.00487595
0.000976427
-0.00506563
0.000468145
-0.00502899
-0.000125052
-0.00475131
-0.000754766
-0.00424084
-0.00135204
-0.00353482
-0.00183321
-0.00270212
-0.00211294
-0.0018395
-0.00212523
-0.00105785
-0.00184937
-0.000458211
-0.00133265
-0.000103627
-0.000699114
-0.000140011
-0.000228948
0.0005579
-0.000765941
0.00145983
-0.00149526
0.00210499
-0.00233021
0.00249724
-0.00320284
0.00266576
-0.00405583
0.00263635
-0.00483664
0.00242267
-0.00549427
0.00202935
-0.00597891
0.00146107
-0.00624407
0.000733306
-0.00625098
-0.000118141
-0.00597489
-0.00103086
-0.00541333
-0.0019136
-0.00459531
-0.00265123
-0.00358925
-0.00311899
-0.00250486
-0.00320963
-0.00148235
-0.00287188
-0.000664775
-0.00215022
-0.000158435
-0.00120545
-0.000298446
-0.00027526
0.000833159
-0.000910228
0.0020948
-0.00176139
0.00295615
-0.00272643
0.00346228
-0.00372998
0.0036693
-0.00471193
0.0036183
-0.00561897
0.00332971
-0.00639939
0.00280977
-0.00700108
0.00206276
-0.00737212
0.00110435
-0.00746392
-2.63382e-05
-0.00723696
-0.00125781
-0.00667059
-0.00247997
-0.00577608
-0.00354574
-0.00461187
-0.00428321
-0.00329484
-0.00452666
-0.0019973
-0.00416941
-0.000917867
-0.00322966
-0.0002253
-0.00189802
-0.000523745
-0.000311005
0.00114416
-0.00102251
0.0028063
-0.00197
0.00390365
-0.00303946
0.00453174
-0.00415077
0.00478062
-0.00524369
0.00471122
-0.00626693
0.00435295
-0.00717094
0.00371378
-0.00790371
0.00279553
-0.00840925
0.0016099
-0.00862862
0.000193032
-0.00850483
-0.00138161
-0.00799255
-0.00299226
-0.0070751
-0.00446318
-0.00578768
-0.00557063
-0.00424196
-0.00607238
-0.00263831
-0.00577307
-0.00124294
-0.00462502
-0.000313662
-0.00282731
-0.000837408
-0.000334274
0.00147844
-0.00109669
0.00356871
-0.0021092
0.00491617
-0.00325018
0.00567271
-0.00443747
0.00596791
-0.00561309
0.00588684
-0.00673058
0.00547044
-0.00774566
0.00472885
-0.0086098
0.00365967
-0.00926618
0.00226628
-0.00964814
0.000574993
-0.00968157
-0.00134818
-0.00929346
-0.00338037
-0.00843002
-0.00532662
-0.00708686
-0.00691379
-0.00534929
-0.00780995
-0.00342921
-0.00769315
-0.00166427
-0.00638996
-0.000433861
-0.00405771
-0.00127127
-0.000343821
0.00182226
-0.00112834
0.00435323
-0.00216915
0.00595698
-0.0033406
0.00684416
-0.0045608
0.00718811
-0.0057762
0.00710224
-0.00694777
0.00664201
-0.00803997
0.00582106
-0.00901225
0.00463195
-0.00981246
0.00306649
-0.0103723
0.00113484
-0.010606
-0.00111446
-0.0104151
-0.00357126
-0.00970392
-0.00603784
-0.0084123
-0.00820542
-0.00657047
-0.00965177
-0.00436831
-0.00989531
-0.00219978
-0.0085585
-0.000596739
-0.00566075
-0.00186801
-0.000340167
0.00216243
-0.00111735
0.00513041
-0.00214615
0.00698578
-0.00329944
0.00799745
-0.00449739
0.00838606
-0.00569282
0.00829766
-0.00685666
0.00780585
-0.00796571
0.00693011
-0.00899258
0.00565881
-0.00989704
0.00397096
-0.0106185
0.00185631
-0.0110699
-0.000663048
-0.0111369
-0.00350428
-0.0106849
-0.00648988
-0.00958797
-0.0093023
-0.00779087
-0.0114489
-0.00541114
-0.012275
-0.00285324
-0.0111164
-0.000813033
-0.00770095
-0.00268104
-0.000327084
0.00248951
-0.00107146
0.00587479
-0.00204804
0.00796237
-0.00312927
0.00907868
-0.00423919
0.00949598
-0.00533919
0.00939766
-0.00641275
0.00887941
-0.00745245
0.0079698
-0.00844908
0.00665545
-0.00938194
0.00490382
-0.0102091
0.00268346
-0.0108558
-1.63605e-05
-0.0112089
-0.0031512
-0.0111082
-0.00659056
-0.0103653
-0.0100452
-0.00881752
-0.0129967
-0.00645214
-0.0146404
-0.0036019
-0.0139666
-0.00109168
-0.0102112
-0.00377271
-0.000313512
0.00280302
-0.00101038
0.00657166
-0.00189988
0.00885186
-0.00285362
0.0100324
-0.00380247
0.0104448
-0.00472
0.0103152
-0.00560544
0.00976485
-0.00647017
0.00883453
-0.00732705
0.00751233
-0.00818073
0.00575751
-0.00901696
0.00351969
-0.00979066
0.000757334
-0.0104059
-0.00253595
-0.0107044
-0.00629205
-0.0104555
-0.0102941
-0.00938866
-0.0140635
-0.00731302
-0.0167161
-0.00438015
-0.0168995
-0.00143583
-0.0131555
-0.00520854
-0.000316274
0.0031193
-0.000970542
0.00722592
-0.00174891
0.00963023
-0.00252145
0.0108049
-0.00323238
0.0111558
-0.00387418
0.010957
-0.00446645
0.0103571
-0.00504206
0.00941015
-0.00563777
0.00810803
-0.0062861
0.00640584
-0.00700616
0.00423974
-0.00779054
0.00154172
-0.00858474
-0.00174175
-0.00926046
-0.00561632
-0.00958423
-0.00997037
-0.00920824
-0.0144395
-0.00774768
-0.0181766
-0.00506367
-0.0195835
-0.00183488
-0.0163843
-0.00704342
-0.000364535
0.00348383
-0.00101035
0.00787174
-0.00166667
0.0102865
-0.00220502
0.0113433
-0.00259708
0.0115478
-0.00286626
0.0112262
-0.00305933
0.0105502
-0.00323308
0.00958391
-0.00344772
0.00832266
-0.00376203
0.00672016
-0.00422756
0.00470527
-0.0048786
0.00219277
-0.00571405
-0.000906302
-0.0066655
-0.00466488
-0.00754663
-0.00908923
-0.00799462
-0.0139915
-0.00746591
-0.0187053
-0.00546048
-0.0215889
-0.00225031
-0.0195945
-0.00929373
-0.000506573
0.0039904
-0.00121389
0.00857905
-0.00174169
0.0108144
-0.00198029
0.0115819
-0.00195779
0.0115253
-0.00174777
0.0110161
-0.00143313
0.0102355
-0.00109653
0.00924731
-0.000819205
0.00804534
-0.000681202
0.00658216
-0.000760516
0.00478458
-0.00112881
0.00256106
-0.00183998
-0.000195133
-0.00290325
-0.00360161
-0.00422638
-0.0077661
-0.00551507
-0.0127028
-0.00616016
-0.0180602
-0.00530732
-0.0224418
-0.00259294
-0.0223088
-0.0118867
-0.000812001
0.0048024
-0.00167753
0.00944458
-0.00203404
0.0111709
-0.0018514
0.0113993
-0.00127116
0.0109451
-0.000444133
0.0101891
0.000501826
0.00928959
0.00145838
0.00829076
0.00232813
0.00717558
0.00301726
0.00589303
0.00343042
0.00437143
0.00346869
0.00252278
0.00303236
0.000241203
0.00203561
-0.00260485
0.000451175
-0.00618167
-0.00157546
-0.0106762
-0.00351125
-0.0161245
-0.00426059
-0.0216925
-0.00268936
-0.0238801
-0.014576
-0.00134836
0.00615076
-0.00241691
0.0105131
-0.00238123
0.0111352
-0.00148882
0.0105068
-9.61258e-05
0.00955237
0.00154545
0.00854754
0.0032665
0.00756854
0.00494349
0.00661377
0.00647508
0.00564399
0.00776606
0.00460206
0.00871627
0.00342121
0.0092134
0.00202565
0.00912837
0.00032624
0.00831766
-0.00179414
0.00664224
-0.00450624
0.00405304
-0.00808696
0.00084583
-0.0129172
-0.00188291
-0.0189637
-0.00225534
-0.0235076
-0.0168314
-0.00213521
0.00828597
-0.00292059
0.0112985
-0.00168413
0.00989872
0.00053967
0.00828305
0.00312219
0.00696985
0.00577257
0.00589716
0.00833744
0.00500366
0.0107199
0.0042313
0.0128454
0.00351848
0.0146407
0.00280678
0.01602
0.00204189
0.0168766
0.00116909
0.0170736
0.000129237
0.0164396
-0.00116011
0.0147593
-0.00282601
0.0117987
-0.00512632
0.00746661
-0.00858516
0.00244991
-0.013947
-0.000882706
-0.020175
-0.0177141
-0.00248808
0.010774
-1.275e-05
0.00882319
0.00417766
0.00570831
0.00832832
0.00413238
0.012124
0.00317419
0.0155333
0.00248789
0.0185566
0.00198029
0.0211993
0.00158864
0.0234575
0.00126028
0.0253082
0.000956074
0.0267043
0.000645809
0.0275684
0.000304945
0.0277881
-9.04363e-05
0.0272039
-0.000575951
0.0255791
-0.00120117
0.0225522
-0.00209941
0.0176215
-0.00365442
0.0104029
-0.00672847
0.00247596
-0.0122481
-0.0152381
0.010774
0.0195972
0.0253056
0.0294379
0.0326121
0.0351
0.0370803
0.0386689
0.0399292
0.0408853
0.0415311
0.041836
0.0417456
0.0411697
0.0399685
0.0378691
0.0342147
0.0274862
0.0152381
)
;

boundaryField
{
    movingWall
    {
        type            calculated;
        value           uniform 0;
    }
    fixedWalls
    {
        type            calculated;
        value           uniform 0;
    }
    frontAndBack
    {
        type            empty;
    }
}


// ************************************************************************* //
