/*--------------------------------*- C++ -*----------------------------------*\
  =========                 |
  \\      /  F ield         | OpenFOAM: The Open Source CFD Toolbox
   \\    /   O peration     | Website:  https://openfoam.org
    \\  /    A nd           | Version:  13
     \\/     M anipulation  |
\*---------------------------------------------------------------------------*/
FoamFile
{
    format      ascii;
    class       volVectorField;
    location    "44";
    object      U;
}
// * * * * * * * * * * * * * * * * * * * * * * * * * * * * * * * * * * * * * //

dimensions      [0 1 -1 0 0 0 0];

internalField   nonuniform List<vector> 
400
(
(0.000183215 -0.000187122 0)
(-0.00013721 2.97099e-05 0)
(-0.00153416 0.000268266 0)
(-0.00378863 0.000419463 0)
(-0.00655208 0.000499412 0)
(-0.00952282 0.000529957 0)
(-0.0124505 0.000520871 0)
(-0.015101 0.00047105 0)
(-0.0172332 0.000373669 0)
(-0.0185999 0.00022329 0)
(-0.0189747 2.31441e-05 0)
(-0.0182024 -0.000209323 0)
(-0.0162579 -0.000440039 0)
(-0.0132974 -0.000622298 0)
(-0.00967864 -0.000707367 0)
(-0.00592967 -0.000660266 0)
(-0.00265815 -0.000474881 0)
(-0.000406522 -0.000181905 0)
(0.000541232 0.000137479 0)
(0.000310049 0.000303055 0)
(-4.69457e-05 0.000136181 0)
(-0.00208048 0.00193345 0)
(-0.00643777 0.00376252 0)
(-0.012593 0.0050274 0)
(-0.0197865 0.00569335 0)
(-0.0273465 0.0058369 0)
(-0.034667 0.00550863 0)
(-0.041165 0.00471478 0)
(-0.0462594 0.00344544 0)
(-0.049391 0.00172012 0)
(-0.0500863 -0.00036814 0)
(-0.048055 -0.00262433 0)
(-0.0432988 -0.00475053 0)
(-0.0361978 -0.00638286 0)
(-0.0275389 -0.00716806 0)
(-0.0184507 -0.0068689 0)
(-0.010225 -0.00547079 0)
(-0.00403272 -0.00325685 0)
(-0.000575549 -0.000860524 0)
(0.000222063 0.000590456 0)
(-0.000353355 0.00171745 0)
(-0.00448979 0.0064698 0)
(-0.0118792 0.0106809 0)
(-0.021617 0.0135285 0)
(-0.032604 0.0149637 0)
(-0.0439267 0.0151142 0)
(-0.0547455 0.0140691 0)
(-0.0642423 0.0118506 0)
(-0.0716138 0.00847214 0)
(-0.0761067 0.00402867 0)
(-0.0771011 -0.00121836 0)
(-0.0742253 -0.00679123 0)
(-0.067482 -0.0120023 0)
(-0.0573528 -0.0160334 0)
(-0.0448443 -0.0180941 0)
(-0.0314314 -0.0176441 0)
(-0.0188583 -0.0146291 0)
(-0.00879312 -0.00965384 0)
(-0.00241847 -0.0040555 0)
(3.55329e-05 2.62291e-05 0)
(-0.000631051 0.00459767 0)
(-0.00681688 0.0136844 0)
(-0.0171153 0.0209379 0)
(-0.0301748 0.0256499 0)
(-0.044554 0.0278857 0)
(-0.0591586 0.0278643 0)
(-0.0730023 0.0257251 0)
(-0.0851262 0.0215143 0)
(-0.0945894 0.0152842 0)
(-0.100509 0.00723152 0)
(-0.102141 -0.00217752 0)
(-0.0990026 -0.0121346 0)
(-0.0910017 -0.0214962 0)
(-0.0785757 -0.0288962 0)
(-0.0627864 -0.0329811 0)
(-0.0453233 -0.0327628 0)
(-0.0283402 -0.0280263 0)
(-0.0140877 -0.0196567 0)
(-0.00443284 -0.00975035 0)
(-0.000124912 -0.0015144 0)
(-0.00087032 0.0086604 0)
(-0.00889856 0.0233492 0)
(-0.0218378 0.0342021 0)
(-0.0378969 0.0409509 0)
(-0.0553145 0.0439488 0)
(-0.0728602 0.0435827 0)
(-0.0894682 0.0400693 0)
(-0.104111 0.033485 0)
(-0.115773 0.0239175 0)
(-0.123475 0.0116546 0)
(-0.126338 -0.00265002 0)
(-0.123698 -0.0178723 0)
(-0.115245 -0.032404 0)
(-0.10121 -0.044269 0)
(-0.0825402 -0.0514081 0)
(-0.0610262 -0.0521641 0)
(-0.0392373 -0.0459127 0)
(-0.0201757 -0.0336482 0)
(-0.00668439 -0.0182262 0)
(-0.000271323 -0.00408956 0)
(-0.00106744 0.0137446 0)
(-0.0106532 0.0351615 0)
(-0.0258536 0.0501201 0)
(-0.0444981 0.0590651 0)
(-0.0645574 0.0628117 0)
(-0.0847136 0.0620064 0)
(-0.103879 0.0569807 0)
(-0.121021 0.0478438 0)
(-0.135101 0.0346954 0)
(-0.145067 0.0178661 0)
(-0.149895 -0.00186999 0)
(-0.14867 -0.0231424 0)
(-0.140745 -0.0439199 0)
(-0.125963 -0.0615793 0)
(-0.10496 -0.0731927 0)
(-0.0794527 -0.0761216 0)
(-0.0523738 -0.0689255 0)
(-0.0276407 -0.0523688 0)
(-0.00945458 -0.0300108 0)
(-0.000446627 -0.00784965 0)
(-0.00121477 0.0196572 0)
(-0.0120058 0.0487368 0)
(-0.0289844 0.0682428 0)
(-0.0496862 0.0795488 0)
(-0.071885 0.0840865 0)
(-0.0942259 0.0828552 0)
(-0.115654 0.0763432 0)
(-0.13519 0.0646931 0)
(-0.151827 0.0479776 0)
(-0.164484 0.0264936 0)
(-0.171997 0.00102656 0)
(-0.173176 -0.0269305 0)
(-0.166943 -0.0550229 0)
(-0.152592 -0.0799996 0)
(-0.130203 -0.0979224 0)
(-0.101139 -0.104801 0)
(-0.0684911 -0.0977947 0)
(-0.0371444 -0.0768347 0)
(-0.0131047 -0.0459552 0)
(-0.000702315 -0.0131242 0)
(-0.00130362 0.026166 0)
(-0.0128847 0.0636025 0)
(-0.0310576 0.088003 0)
(-0.0531573 0.101824 0)
(-0.0768349 0.107239 0)
(-0.100747 0.105691 0)
(-0.123921 0.0978695 0)
(-0.145491 0.0839548 0)
(-0.164548 0.0639502 0)
(-0.180049 0.038029 0)
(-0.190756 0.00685199 0)
(-0.195234 -0.0281357 0)
(-0.191957 -0.0644288 0)
(-0.179559 -0.0982652 0)
(-0.157311 -0.124653 0)
(-0.125831 -0.137906 0)
(-0.0879316 -0.133047 0)
(-0.0492614 -0.108196 0)
(-0.0180296 -0.0672308 0)
(-0.00110164 -0.0204471 0)
(-0.00132928 0.0330045 0)
(-0.013243 0.0792072 0)
(-0.0319425 0.108716 0)
(-0.0546463 0.125152 0)
(-0.0789494 0.13153 0)
(-0.10356 0.129817 0)
(-0.127635 0.120963 0)
(-0.150479 0.105197 0)
(-0.171363 0.0824242 0)
(-0.189381 0.0526124 0)
(-0.203337 0.0161581 0)
(-0.211679 -0.0257403 0)
(-0.212519 -0.0706751 0)
(-0.203823 -0.114626 0)
(-0.183861 -0.151689 0)
(-0.152059 -0.174305 0)
(-0.110271 -0.174592 0)
(-0.0642892 -0.147459 0)
(-0.024628 -0.09525 0)
(-0.00172778 -0.0305694 0)
(-0.00129845 0.0398941 0)
(-0.013098 0.0949543 0)
(-0.0316185 0.129601 0)
(-0.0540236 0.148633 0)
(-0.0779036 0.155979 0)
(-0.102053 0.154216 0)
(-0.125799 0.144616 0)
(-0.148676 0.127498 0)
(-0.170221 0.102664 0)
(-0.189788 0.0698252 0)
(-0.206391 0.0290002 0)
(-0.218561 -0.0190579 0)
(-0.224267 -0.0723394 0)
(-0.220949 -0.126964 0)
(-0.205843 -0.17651 0)
(-0.176806 -0.211698 0)
(-0.133907 -0.221199 0)
(-0.081971 -0.195005 0)
(-0.0332469 -0.131475 0)
(-0.00269467 -0.0444671 0)
(-0.0012391 0.0465934 0)
(-0.0125819 0.110271 0)
(-0.0302638 0.149834 0)
(-0.051418 0.171229 0)
(-0.0736675 0.179369 0)
(-0.0959317 0.17753 0)
(-0.117754 0.167385 0)
(-0.138959 0.149397 0)
(-0.159425 0.1233 0)
(-0.178892 0.0885483 0)
(-0.196768 0.0447242 0)
(-0.211917 -0.00801857 0)
(-0.222478 -0.0683888 0)
(-0.225695 -0.133122 0)
(-0.217972 -0.19595 0)
(-0.195471 -0.246497 0)
(-0.155728 -0.269993 0)
(-0.101121 -0.249936 0)
(-0.0440538 -0.177054 0)
(-0.00415676 -0.063329 0)
(-0.00121386 0.0529799 0)
(-0.0120069 0.124724 0)
(-0.0283552 0.168638 0)
(-0.0473437 0.19183 0)
(-0.0666625 0.2003 0)
(-0.0854263 0.19812 0)
(-0.103463 0.187447 0)
(-0.120944 0.168955 0)
(-0.138158 0.142374 0)
(-0.155319 0.106949 0)
(-0.172373 0.0618402 0)
(-0.188775 0.00653272 0)
(-0.203169 -0.0586149 0)
(-0.213058 -0.131465 0)
(-0.214526 -0.206746 0)
(-0.202316 -0.274108 0)
(-0.171072 -0.316225 0)
(-0.119241 -0.309337 0)
(-0.0567909 -0.232208 0)
(-0.00631145 -0.0884969 0)
(-0.00134159 0.0591798 0)
(-0.011948 0.138173 0)
(-0.0267682 0.185401 0)
(-0.0427932 0.209333 0)
(-0.0578481 0.217263 0)
(-0.0713869 0.21417 0)
(-0.0836394 0.202747 0)
(-0.0951951 0.183938 0)
(-0.106791 0.157532 0)
(-0.119152 0.122646 0)
(-0.132835 0.0781046 0)
(-0.148008 0.0227724 0)
(-0.164133 -0.0439838 0)
(-0.179487 -0.121514 0)
(-0.19055 -0.206374 0)
(-0.191419 -0.289728 0)
(-0.174159 -0.35358 0)
(-0.132335 -0.36776 0)
(-0.0703918 -0.295343 0)
(-0.00938023 -0.121283 0)
(-0.00183789 0.0657655 0)
(-0.0133623 0.150974 0)
(-0.0268616 0.199775 0)
(-0.0392387 0.222695 0)
(-0.0486385 0.228703 0)
(-0.0551355 0.223785 0)
(-0.0595558 0.211165 0)
(-0.0629949 0.192044 0)
(-0.0666512 0.166302 0)
(-0.0717336 0.133012 0)
(-0.0793681 0.0907861 0)
(-0.090454 0.0380328 0)
(-0.105402 -0.0267566 0)
(-0.123661 -0.10445 0)
(-0.142904 -0.193979 0)
(-0.157775 -0.289529 0)
(-0.158909 -0.375174 0)
(-0.135063 -0.417286 0)
(-0.082504 -0.362015 0)
(-0.0135162 -0.162509 0)
(-0.00307523 0.074049 0)
(-0.0177365 0.164176 0)
(-0.0304595 0.211676 0)
(-0.0383643 0.230847 0)
(-0.040402 0.232955 0)
(-0.0377762 0.225 0)
(-0.0321905 0.210589 0)
(-0.025345 0.191061 0)
(-0.0188852 0.166338 0)
(-0.0144212 0.135487 0)
(-0.013533 0.0970376 0)
(-0.0177292 0.0491631 0)
(-0.0283118 -0.010201 0)
(-0.0460459 -0.083123 0)
(-0.0703957 -0.170914 0)
(-0.0978861 -0.271813 0)
(-0.119651 -0.374992 0)
(-0.12107 -0.44842 0)
(-0.0889843 -0.424271 0)
(-0.0184942 -0.211699 0)
(-0.00557123 0.0865787 0)
(-0.0270751 0.179611 0)
(-0.0392973 0.220929 0)
(-0.0408385 0.23224 0)
(-0.0326984 0.227865 0)
(-0.0180606 0.215512 0)
(0.000165418 0.198762 0)
(0.0196161 0.178806 0)
(0.038264 0.155471 0)
(0.054228 0.127791 0)
(0.0656442 0.0943078 0)
(0.0705923 0.0531825 0)
(0.0670886 0.00219695 0)
(0.0532108 -0.0613183 0)
(0.027561 -0.140411 0)
(-0.00924512 -0.237442 0)
(-0.0511513 -0.349122 0)
(-0.0830793 -0.451548 0)
(-0.0834083 -0.471115 0)
(-0.0231121 -0.26672 0)
(-0.00989192 0.108711 0)
(-0.0429375 0.199608 0)
(-0.0521087 0.225803 0)
(-0.0415859 0.223371 0)
(-0.0175784 0.20967 0)
(0.01364 0.191918 0)
(0.0478898 0.172805 0)
(0.0823372 0.152899 0)
(0.114817 0.13169 0)
(0.143425 0.108115 0)
(0.166261 0.080788 0)
(0.181248 0.0480458 0)
(0.186017 0.00788268 0)
(0.177865 -0.0423034 0)
(0.153846 -0.106197 0)
(0.111586 -0.189096 0)
(0.0523928 -0.295981 0)
(-0.0124644 -0.417729 0)
(-0.0567254 -0.488944 0)
(-0.024652 -0.324035 0)
(-0.0178113 0.151668 0)
(-0.0612802 0.223637 0)
(-0.0522136 0.217692 0)
(-0.0142509 0.194997 0)
(0.0355838 0.171139 0)
(0.0888375 0.149163 0)
(0.14152 0.129464 0)
(0.191343 0.111452 0)
(0.236706 0.0940865 0)
(0.276209 0.0761897 0)
(0.308319 0.0565289 0)
(0.331169 0.0337819 0)
(0.342381 0.00643315 0)
(0.338962 -0.0274997 0)
(0.317105 -0.0711767 0)
(0.272229 -0.130537 0)
(0.20014 -0.216489 0)
(0.103001 -0.338351 0)
(0.00436739 -0.456783 0)
(-0.0159603 -0.369322 0)
(-0.0242239 0.208265 0)
(-0.0379151 0.230357 0)
(0.0372801 0.17654 0)
(0.125082 0.136874 0)
(0.205882 0.10909 0)
(0.278094 0.0882515 0)
(0.342379 0.0721562 0)
(0.399019 0.0592155 0)
(0.448059 0.0480488 0)
(0.489267 0.0375247 0)
(0.521966 0.0267042 0)
(0.544925 0.0147405 0)
(0.556262 0.000761114 0)
(0.553328 -0.0163051 0)
(0.532309 -0.0382973 0)
(0.487742 -0.0691561 0)
(0.411141 -0.119102 0)
(0.290887 -0.209351 0)
(0.133133 -0.338288 0)
(0.038775 -0.340365 0)
(0.241886 0.109132 0)
(0.313454 0.0971163 0)
(0.444318 0.0569669 0)
(0.549631 0.0351075 0)
(0.624072 0.0237378 0)
(0.679629 0.016708 0)
(0.72352 0.0119781 0)
(0.758838 0.00869212 0)
(0.787133 0.00625319 0)
(0.809201 0.00423013 0)
(0.825221 0.00232861 0)
(0.834823 0.000340781 0)
(0.837146 -0.00190968 0)
(0.830771 -0.00459102 0)
(0.813398 -0.00802872 0)
(0.781136 -0.0128847 0)
(0.725692 -0.0212291 0)
(0.629863 -0.0380923 0)
(0.459268 -0.0855492 0)
(0.304894 -0.125698 0)
)
;

boundaryField
{
    movingWall
    {
        type            fixedValue;
        value           uniform (1 0 0);
    }
    fixedWalls
    {
        type            fixedValue;
        value           uniform (0 0 0);
    }
    frontAndBack
    {
        type            empty;
    }
}


// ************************************************************************* //
