/*--------------------------------*- C++ -*----------------------------------*\
  =========                 |
  \\      /  F ield         | OpenFOAM: The Open Source CFD Toolbox
   \\    /   O peration     | Website:  https://openfoam.org
    \\  /    A nd           | Version:  13
     \\/     M anipulation  |
\*---------------------------------------------------------------------------*/
FoamFile
{
    format      ascii;
    class       volVectorField;
    location    "44";
    object      U_0;
}
// * * * * * * * * * * * * * * * * * * * * * * * * * * * * * * * * * * * * * //

dimensions      [0 1 -1 0 0 0 0];

internalField   nonuniform List<vector> 
400
(
(0.000183059 -0.000186964 0)
(-0.000137417 2.98303e-05 0)
(-0.00153399 0.000268301 0)
(-0.00378772 0.000419455 0)
(-0.00655023 0.000499376 0)
(-0.0095199 0.000529896 0)
(-0.0124464 0.000520778 0)
(-0.0150959 0.000470936 0)
(-0.0172273 0.000373555 0)
(-0.0185935 0.000223197 0)
(-0.0189683 2.3102e-05 0)
(-0.0181965 -0.000209286 0)
(-0.0162529 -0.000439924 0)
(-0.0132938 -0.000622137 0)
(-0.0096765 -0.000707202 0)
(-0.0059289 -0.00066015 0)
(-0.00265835 -0.00047486 0)
(-0.000407144 -0.000181997 0)
(0.000540677 0.000137299 0)
(0.000309874 0.000302891 0)
(-4.70418e-05 0.000136378 0)
(-0.00207983 0.00193296 0)
(-0.00643557 0.00376134 0)
(-0.0125884 0.00502571 0)
(-0.0197792 0.00569136 0)
(-0.0273364 0.0058348 0)
(-0.0346541 0.00550658 0)
(-0.0411496 0.004713 0)
(-0.0462423 0.00344419 0)
(-0.049373 0.00171961 0)
(-0.0500685 -0.000367735 0)
(-0.0480386 -0.00262293 0)
(-0.0432848 -0.00474829 0)
(-0.0361869 -0.00638014 0)
(-0.0275315 -0.00716534 0)
(-0.0184465 -0.00686665 0)
(-0.0102234 -0.00546938 0)
(-0.0040327 -0.00325643 0)
(-0.000576017 -0.000860863 0)
(0.00022186 0.000589909 0)
(-0.000353307 0.00171709 0)
(-0.00448797 0.00646764 0)
(-0.0118745 0.0106771 0)
(-0.0216084 0.0135236 0)
(-0.032591 0.0149582 0)
(-0.0439093 0.0151086 0)
(-0.054724 0.0140639 0)
(-0.0642174 0.0118463 0)
(-0.0715865 0.00846931 0)
(-0.0760784 0.00402782 0)
(-0.0770732 -0.00121694 0)
(-0.0741995 -0.00678753 0)
(-0.0674596 -0.0119967 0)
(-0.0573349 -0.0160267 0)
(-0.0448314 -0.0180873 0)
(-0.0314234 -0.0176383 0)
(-0.0188542 -0.0146251 0)
(-0.00879185 -0.00965199 0)
(-0.00241847 -0.00405544 0)
(3.5368e-05 2.5457e-05 0)
(-0.000630868 0.00459605 0)
(-0.00681385 0.0136792 0)
(-0.0171081 0.0209299 0)
(-0.0301621 0.0256401 0)
(-0.0445356 0.027875 0)
(-0.0591346 0.0278537 0)
(-0.0729733 0.0257155 0)
(-0.085093 0.0215067 0)
(-0.0945535 0.0152794 0)
(-0.100472 0.00723038 0)
(-0.102105 -0.00217461 0)
(-0.0989685 -0.0121278 0)
(-0.0909716 -0.0214862 0)
(-0.0785511 -0.0288842 0)
(-0.0627679 -0.0329687 0)
(-0.045311 -0.0327519 0)
(-0.0283332 -0.0280183 0)
(-0.0140848 -0.0196523 0)
(-0.00443222 -0.00974915 0)
(-0.000125051 -0.00151513 0)
(-0.000870021 0.00865687 0)
(-0.00889452 0.0233398 0)
(-0.0218284 0.0341885 0)
(-0.037881 0.0409348 0)
(-0.0552919 0.0439318 0)
(-0.0728311 0.0435663 0)
(-0.0894334 0.0400547 0)
(-0.104072 0.0334736 0)
(-0.115731 0.0239106 0)
(-0.123431 0.0116532 0)
(-0.126295 -0.00264551 0)
(-0.123657 -0.017862 0)
(-0.115209 -0.032389 0)
(-0.101179 -0.0442509 0)
(-0.0825162 -0.0513892 0)
(-0.0610093 -0.0521468 0)
(-0.0392272 -0.0458992 0)
(-0.0201709 -0.03364 0)
(-0.00668307 -0.0182231 0)
(-0.000271446 -0.0040899 0)
(-0.00106706 0.0137387 0)
(-0.0106485 0.0351471 0)
(-0.0258429 0.0501 0)
(-0.0444802 0.059042 0)
(-0.0645323 0.0627877 0)
(-0.0846816 0.0619836 0)
(-0.103841 0.0569606 0)
(-0.120978 0.0478284 0)
(-0.135054 0.0346861 0)
(-0.145019 0.0178642 0)
(-0.149847 -0.0018641 0)
(-0.148625 -0.0231289 0)
(-0.140703 -0.0438999 0)
(-0.125927 -0.0615548 0)
(-0.104931 -0.0731666 0)
(-0.0794315 -0.0760969 0)
(-0.0523604 -0.0689054 0)
(-0.0276341 -0.0523556 0)
(-0.00945247 -0.0300047 0)
(-0.000446723 -0.0078492 0)
(-0.00121436 0.0196486 0)
(-0.012001 0.0487169 0)
(-0.0289735 0.0682157 0)
(-0.0496681 0.0795183 0)
(-0.0718597 0.0840553 0)
(-0.0941938 0.0828258 0)
(-0.115617 0.0763177 0)
(-0.135147 0.0646735 0)
(-0.151781 0.0479657 0)
(-0.164436 0.0264907 0)
(-0.171949 0.00103332 0)
(-0.17313 -0.0269143 0)
(-0.166899 -0.0549986 0)
(-0.152554 -0.0799691 0)
(-0.130171 -0.0978889 0)
(-0.101114 -0.104769 0)
(-0.0684747 -0.0977669 0)
(-0.0371358 -0.0768151 0)
(-0.0131017 -0.0459452 0)
(-0.00070236 -0.0131226 0)
(-0.00130326 0.0261548 0)
(-0.0128803 0.0635773 0)
(-0.0310477 0.0879692 0)
(-0.0531408 0.101786 0)
(-0.0768119 0.107201 0)
(-0.100718 0.105655 0)
(-0.123887 0.0978388 0)
(-0.145452 0.0839313 0)
(-0.164507 0.0639357 0)
(-0.180006 0.0380249 0)
(-0.190712 0.006859 0)
(-0.195191 -0.0281178 0)
(-0.191916 -0.0644012 0)
(-0.179521 -0.0982299 0)
(-0.157278 -0.124613 0)
(-0.125805 -0.137866 0)
(-0.087913 -0.133011 0)
(-0.049251 -0.10817 0)
(-0.0180257 -0.0672159 0)
(-0.00110161 -0.0204438 0)
(-0.00132904 0.0329912 0)
(-0.0132397 0.0791775 0)
(-0.0319349 0.108677 0)
(-0.0546334 0.125109 0)
(-0.0789314 0.131487 0)
(-0.103537 0.129777 0)
(-0.127608 0.120928 0)
(-0.150449 0.10517 0)
(-0.171331 0.0824076 0)
(-0.189348 0.0526072 0)
(-0.203304 0.016165 0)
(-0.211645 -0.0257216 0)
(-0.212486 -0.0706456 0)
(-0.203791 -0.114588 0)
(-0.183831 -0.151645 0)
(-0.152034 -0.174258 0)
(-0.110252 -0.174548 0)
(-0.0642777 -0.147424 0)
(-0.0246234 -0.0952294 0)
(-0.00172764 -0.030564 0)
(-0.00129839 0.0398794 0)
(-0.0130963 0.0949216 0)
(-0.0316142 0.129558 0)
(-0.054016 0.148585 0)
(-0.0778929 0.155931 0)
(-0.102039 0.154172 0)
(-0.125783 0.144579 0)
(-0.148659 0.12747 0)
(-0.170203 0.102646 0)
(-0.189769 0.0698194 0)
(-0.206372 0.0290069 0)
(-0.218542 -0.0190391 0)
(-0.224248 -0.0723096 0)
(-0.22093 -0.126924 0)
(-0.205823 -0.176463 0)
(-0.176787 -0.211647 0)
(-0.13389 -0.221149 0)
(-0.0819598 -0.194964 0)
(-0.0332418 -0.131449 0)
(-0.00269437 -0.0444591 0)
(-0.00123923 0.0465783 0)
(-0.0125822 0.110237 0)
(-0.0302636 0.149789 0)
(-0.0514172 0.171179 0)
(-0.0736659 0.17932 0)
(-0.0959297 0.177484 0)
(-0.117752 0.167347 0)
(-0.138957 0.149368 0)
(-0.159424 0.123283 0)
(-0.178892 0.0885429 0)
(-0.196768 0.044731 0)
(-0.211917 -0.00800018 0)
(-0.222477 -0.0683599 0)
(-0.225692 -0.133084 0)
(-0.217966 -0.195905 0)
(-0.195462 -0.246446 0)
(-0.155717 -0.269942 0)
(-0.101112 -0.24989 0)
(-0.0440488 -0.177023 0)
(-0.00415624 -0.0633182 0)
(-0.0012142 0.0529656 0)
(-0.0120092 0.124691 0)
(-0.0283595 0.168594 0)
(-0.0473501 0.19178 0)
(-0.0666708 0.20025 0)
(-0.0854366 0.198076 0)
(-0.103475 0.18741 0)
(-0.120959 0.168928 0)
(-0.138174 0.142358 0)
(-0.155337 0.106945 0)
(-0.172393 0.0618477 0)
(-0.188795 0.00655076 0)
(-0.203188 -0.0585879 0)
(-0.213073 -0.13143 0)
(-0.214537 -0.206704 0)
(-0.20232 -0.274062 0)
(-0.171071 -0.316175 0)
(-0.119237 -0.30929 0)
(-0.056787 -0.232173 0)
(-0.00631069 -0.0884835 0)
(-0.00134209 0.0591674 0)
(-0.0119523 0.138143 0)
(-0.0267769 0.18536 0)
(-0.0428066 0.209287 0)
(-0.057866 0.217217 0)
(-0.0714089 0.214128 0)
(-0.0836653 0.202713 0)
(-0.0952245 0.183914 0)
(-0.106823 0.157519 0)
(-0.119188 0.122644 0)
(-0.132871 0.0781134 0)
(-0.148045 0.0227903 0)
(-0.164168 -0.0439589 0)
(-0.179519 -0.121484 0)
(-0.190577 -0.206339 0)
(-0.191438 -0.289689 0)
(-0.174169 -0.353538 0)
(-0.132338 -0.367717 0)
(-0.0703902 -0.295308 0)
(-0.0093793 -0.121268 0)
(-0.0018385 0.065756 0)
(-0.0133682 0.15095 0)
(-0.0268739 0.199739 0)
(-0.0392581 0.222655 0)
(-0.0486644 0.228663 0)
(-0.0551674 0.223748 0)
(-0.0595928 0.211135 0)
(-0.0630362 0.192024 0)
(-0.0666958 0.166292 0)
(-0.0717803 0.133012 0)
(-0.0794158 0.0907961 0)
(-0.0905015 0.0380503 0)
(-0.105447 -0.0267337 0)
(-0.123704 -0.104423 0)
(-0.142941 -0.193951 0)
(-0.157804 -0.289499 0)
(-0.158929 -0.375141 0)
(-0.135072 -0.417251 0)
(-0.0825057 -0.361984 0)
(-0.0135153 -0.162493 0)
(-0.00307586 0.0740431 0)
(-0.0177433 0.164158 0)
(-0.030474 0.211649 0)
(-0.0383875 0.230815 0)
(-0.0404334 0.232922 0)
(-0.0378147 0.22497 0)
(-0.0322347 0.210565 0)
(-0.0253935 0.191044 0)
(-0.0189364 0.166331 0)
(-0.0144735 0.135488 0)
(-0.0135851 0.0970476 0)
(-0.0177799 0.0491795 0)
(-0.0283601 -0.0101805 0)
(-0.0460909 -0.0831007 0)
(-0.0704362 -0.170891 0)
(-0.0979201 -0.271791 0)
(-0.119676 -0.374969 0)
(-0.121084 -0.448395 0)
(-0.0889893 -0.424247 0)
(-0.0184937 -0.211684 0)
(-0.00557175 0.0865767 0)
(-0.0270816 0.1796 0)
(-0.0393117 0.220911 0)
(-0.0408622 0.232216 0)
(-0.032731 0.22784 0)
(-0.0181009 0.215489 0)
(0.000119252 0.198742 0)
(0.019566 0.178793 0)
(0.0382119 0.155465 0)
(0.0541759 0.127793 0)
(0.0655936 0.0943164 0)
(0.0705443 0.0531966 0)
(0.067044 0.00221429 0)
(0.05317 -0.0612999 0)
(0.0275244 -0.140393 0)
(-0.00927683 -0.237427 0)
(-0.0511764 -0.349108 0)
(-0.0830959 -0.451533 0)
(-0.0834157 -0.471099 0)
(-0.0231124 -0.266709 0)
(-0.00989205 0.108713 0)
(-0.0429423 0.199605 0)
(-0.0521202 0.225793 0)
(-0.0416057 0.223357 0)
(-0.0176067 0.209653 0)
(0.0136043 0.191901 0)
(0.0478483 0.172791 0)
(0.0822919 0.152888 0)
(0.114769 0.131684 0)
(0.143378 0.108116 0)
(0.166216 0.0807941 0)
(0.181206 0.0480563 0)
(0.185979 0.007896 0)
(0.177832 -0.0422894 0)
(0.153817 -0.106184 0)
(0.111562 -0.189086 0)
(0.0523726 -0.295973 0)
(-0.0124789 -0.417722 0)
(-0.056733 -0.488936 0)
(-0.0246529 -0.324027 0)
(-0.0178107 0.151671 0)
(-0.0612816 0.223638 0)
(-0.0522191 0.217689 0)
(-0.0142623 0.19499 0)
(0.0355656 0.171129 0)
(0.0888126 0.149152 0)
(0.14149 0.129455 0)
(0.191308 0.111444 0)
(0.236669 0.0940824 0)
(0.276171 0.0761894 0)
(0.308283 0.0565324 0)
(0.331136 0.0337885 0)
(0.342352 0.0064418 0)
(0.338937 -0.0274906 0)
(0.317085 -0.0711687 0)
(0.272214 -0.130531 0)
(0.200127 -0.216486 0)
(0.102992 -0.338349 0)
(0.00436181 -0.456781 0)
(-0.0159615 -0.369319 0)
(-0.0242229 0.208267 0)
(-0.0379135 0.230359 0)
(0.0372808 0.17654 0)
(0.12508 0.136872 0)
(0.205876 0.109086 0)
(0.278083 0.0882463 0)
(0.342363 0.0721511 0)
(0.398998 0.0592115 0)
(0.448035 0.0480465 0)
(0.489241 0.0375247 0)
(0.521942 0.0267062 0)
(0.544903 0.0147441 0)
(0.556244 0.000765687 0)
(0.553313 -0.0163006 0)
(0.532298 -0.0382936 0)
(0.487735 -0.0691537 0)
(0.411136 -0.119101 0)
(0.290884 -0.209351 0)
(0.133131 -0.338288 0)
(0.0387738 -0.340364 0)
(0.241886 0.109133 0)
(0.313456 0.0971172 0)
(0.444321 0.0569673 0)
(0.549633 0.0351073 0)
(0.624073 0.0237372 0)
(0.679627 0.0167072 0)
(0.723514 0.0119775 0)
(0.75883 0.00869185 0)
(0.787123 0.00625332 0)
(0.809191 0.00423063 0)
(0.825211 0.00232931 0)
(0.834815 0.000341559 0)
(0.837141 -0.00190897 0)
(0.830769 -0.00459049 0)
(0.813398 -0.00802845 0)
(0.781137 -0.0128849 0)
(0.725693 -0.0212297 0)
(0.629864 -0.0380928 0)
(0.459269 -0.0855498 0)
(0.304894 -0.125698 0)
)
;

boundaryField
{
    movingWall
    {
        type            calculated;
        value           uniform (1 0 0);
    }
    fixedWalls
    {
        type            calculated;
        value           uniform (0 0 0);
    }
    frontAndBack
    {
        type            empty;
    }
}


// ************************************************************************* //
