# Selection   : all
# Cells       : 8
# Volume      : 1.000000e+00
# Time        	maxMag(U)
0             	0.000000e+00
1             	4.850622e-02
2             	7.194556e-02
3             	8.444224e-02
4             	9.382989e-02
5             	1.037692e-01
6             	1.123057e-01
7             	1.191363e-01
8             	1.244748e-01
9             	1.285673e-01
10            	1.316351e-01
