/*--------------------------------*- C++ -*----------------------------------*\
  =========                 |
  \\      /  F ield         | OpenFOAM: The Open Source CFD Toolbox
   \\    /   O peration     | Website:  https://openfoam.org
    \\  /    A nd           | Version:  13
     \\/     M anipulation  |
\*---------------------------------------------------------------------------*/
FoamFile
{
    format      ascii;
    class       volScalarField;
    location    "15";
    object      p;
}
// * * * * * * * * * * * * * * * * * * * * * * * * * * * * * * * * * * * * * //

dimensions      [0 2 -2 0 0 0 0];

internalField   nonuniform List<scalar> 
400
(
4.26569e-09
-0.000436217
-0.000943156
-0.00129665
-0.00139275
-0.00119205
-0.000681325
0.000137741
0.0012459
0.00259696
0.00410778
0.00565381
0.00707657
0.00820593
0.00889669
0.0090718
0.00875917
0.0081093
0.00738634
0.00689893
0.000439265
-1.1752e-05
-0.000449529
-0.000721431
-0.000770589
-0.000575179
-0.000124703
0.000582814
0.00153554
0.00269846
0.00400377
0.00534648
0.00658982
0.0075851
0.00820438
0.00837908
0.00813098
0.00758194
0.00693849
0.00644001
0.000965813
0.000393038
-7.12805e-05
-0.00032087
-0.000358972
-0.000190578
0.000189189
0.000787638
0.00160457
0.00262035
0.00378394
0.00500539
0.00615865
0.00709872
0.0076939
0.0078654
0.00761911
0.00705191
0.00633105
0.00567845
0.00131729
0.000575738
1.98179e-05
-0.000264385
-0.000332556
-0.000216546
8.30599e-05
0.000580993
0.00129221
0.00221592
0.00331892
0.00452292
0.0057023
0.0066985
0.00735344
0.00755517
0.00727808
0.00659588
0.00566758
0.0047545
0.00129831
0.00038116
-0.000289859
-0.00064116
-0.000772127
-0.000736489
-0.000536592
-0.000146455
0.000468461
0.00133098
0.00242993
0.00370026
0.00501323
0.0061855
0.00701285
0.00732475
0.00704106
0.00620419
0.00498552
0.00372757
0.000751299
-0.000330651
-0.00112198
-0.00156043
-0.00178382
-0.0018628
-0.00179712
-0.00154506
-0.00104679
-0.000248169
0.000871123
0.0022685
0.00381747
0.00530566
0.00646458
0.00703295
0.00683788
0.00586297
0.00429551
0.0026015
-0.000461103
-0.00168948
-0.00260059
-0.00314378
-0.00349315
-0.00373308
-0.00385761
-0.00380525
-0.0034843
-0.00279845
-0.00167993
-0.000129283
0.00174672
0.00371372
0.00542522
0.00648907
0.00657899
0.00556009
0.00361168
0.0013726
-0.00245717
-0.00380909
-0.00483801
-0.00550502
-0.00602119
-0.00648409
-0.00688128
-0.00712936
-0.00709867
-0.00663759
-0.00560847
-0.00393888
-0.00168103
0.000934892
0.00348442
0.00540236
0.00612172
0.00528047
0.00297631
7.34417e-05
-0.00533122
-0.00677967
-0.00792223
-0.00873142
-0.00945914
-0.0102191
-0.0109954
-0.0116838
-0.0121132
-0.0120641
-0.0113027
-0.00964187
-0.00702504
-0.00362351
9.01223e-05
0.00335035
0.00524202
0.00500279
0.0024894
-0.00117502
-0.00914752
-0.0106605
-0.0119048
-0.0128634
-0.0138379
-0.014966
-0.0162355
-0.0175276
-0.0186309
-0.0192495
-0.0190297
-0.0176223
-0.0147932
-0.0105661
-0.00538442
-0.000196342
0.00363446
0.00470779
0.00235229
-0.00208586
-0.0139382
-0.0154762
-0.0167901
-0.0178733
-0.0190938
-0.020628
-0.0224798
-0.024526
-0.0265218
-0.0280946
-0.0287554
-0.0279534
-0.0252052
-0.0202725
-0.0134367
-0.00573176
0.000991139
0.00442824
0.00294174
-0.00208099
-0.0197135
-0.0212224
-0.0225312
-0.0236467
-0.0250365
-0.0269391
-0.0293902
-0.0322744
-0.035324
-0.0380967
-0.0399674
-0.0401676
-0.037895
-0.0325519
-0.0240823
-0.0134102
-0.00278334
0.00438674
0.00493989
-9.11448e-05
-0.0264976
-0.0278887
-0.0290337
-0.0299711
-0.0313287
-0.0334409
-0.0363898
-0.0400759
-0.0442157
-0.0483062
-0.0515959
-0.0530994
-0.051689
-0.0463251
-0.0364548
-0.0226267
-0.00721459
0.0052542
0.00954942
0.00574336
-0.0344159
-0.0355097
-0.0361729
-0.0365341
-0.0374856
-0.0394973
-0.0427019
-0.0470087
-0.0521121
-0.0574482
-0.062149
-0.0650321
-0.0646662
-0.0595652
-0.0485911
-0.0316647
-0.0108612
0.00849777
0.0188004
0.0184544
-0.0438867
-0.0442607
-0.0438193
-0.0429307
-0.0429037
-0.0443644
-0.0474683
-0.0520988
-0.0578974
-0.0642177
-0.0700704
-0.0740916
-0.0745829
-0.0696661
-0.0576393
-0.0376652
-0.011071
0.0167068
0.0358659
0.0425169
-0.0559583
-0.0546246
-0.0518813
-0.0486897
-0.046932
-0.0473192
-0.0499342
-0.0545589
-0.0607212
-0.0676449
-0.0741893
-0.0788032
-0.0795436
-0.0741942
-0.0605757
-0.0371211
-0.00411686
0.0337563
0.0652487
0.0835615
-0.0728769
-0.0676806
-0.0602995
-0.0532585
-0.0489274
-0.047771
-0.0495961
-0.053963
-0.0601979
-0.0673335
-0.0740369
-0.078542
-0.0786488
-0.0718069
-0.0553849
-0.0271304
0.0138342
0.0644746
0.113134
0.148663
-0.101615
-0.0857747
-0.0685747
-0.0555454
-0.0479324
-0.0450312
-0.0460337
-0.0501207
-0.0563221
-0.0634327
-0.0699229
-0.0737953
-0.0725681
-0.0633089
-0.0428069
-0.00792741
0.0437958
0.112173
0.188374
0.255277
-0.173892
-0.113103
-0.0729538
-0.0518437
-0.0414202
-0.037526
-0.0384114
-0.0427808
-0.0493067
-0.0565579
-0.0629207
-0.0662668
-0.0638588
-0.0524071
-0.028045
0.0137316
0.0784446
0.172267
0.299394
0.448719
-0.353788
-0.153486
-0.0694904
-0.0425815
-0.0315001
-0.0275026
-0.0289089
-0.0340961
-0.0414059
-0.0492563
-0.0559076
-0.0591977
-0.0564052
-0.0441635
-0.0179878
0.0283383
0.104714
0.229178
0.430657
0.732115
)
;

boundaryField
{
    movingWall
    {
        type            zeroGradient;
    }
    fixedWalls
    {
        type            zeroGradient;
    }
    frontAndBack
    {
        type            empty;
    }
}


// ************************************************************************* //
