/*--------------------------------*- C++ -*----------------------------------*\
  =========                 |
  \\      /  F ield         | OpenFOAM: The Open Source CFD Toolbox
   \\    /   O peration     | Website:  https://openfoam.org
    \\  /    A nd           | Version:  13
     \\/     M anipulation  |
\*---------------------------------------------------------------------------*/
FoamFile
{
    format      ascii;
    class       surfaceScalarField;
    location    "15";
    object      phi;
}
// * * * * * * * * * * * * * * * * * * * * * * * * * * * * * * * * * * * * * //

dimensions      [0 3 -1 0 0 0 0];

internalField   nonuniform List<scalar> 
760
(
1.40205e-06
-1.40258e-06
-3.84104e-05
3.98129e-05
-0.000119947
8.1537e-05
-0.000229366
0.000109419
-0.000352804
0.000123439
-0.000478597
0.000125793
-0.000596644
0.000118046
-0.000697359
0.000100716
-0.000771152
7.37928e-05
-0.000808794
3.76414e-05
-0.000802709
-6.08588e-06
-0.000748969
-5.37396e-05
-0.000649459
-9.951e-05
-0.000513508
-0.00013595
-0.000358128
-0.00015538
-0.000206139
-0.000151988
-8.19827e-05
-0.000124156
-5.61657e-06
-7.63661e-05
1.54851e-05
-2.11014e-05
1.5485e-05
-4.21781e-05
4.07755e-05
-0.00018201
0.000179646
-0.000408501
0.000308029
-0.000693153
0.000394073
-0.00100639
0.000436673
-0.00132124
0.000440643
-0.00161303
0.000409837
-0.0018582
0.00034589
-0.00203399
0.000249578
-0.00211962
0.000123275
-0.00209921
-2.64961e-05
-0.00196567
-0.000187279
-0.00172489
-0.000340289
-0.00139862
-0.000462225
-0.00102458
-0.000529418
-0.000652459
-0.000524108
-0.000335098
-0.000441517
-0.000115688
-0.000295775
-1.29467e-05
-0.000123843
2.53834e-06
-9.49069e-05
0.000135683
-0.000343796
0.000428537
-0.000707377
0.000671609
-0.00114407
0.000830764
-0.00161392
0.000906525
-0.00208016
0.000906882
-0.00250848
0.000838158
-0.002866
0.000703407
-0.0031213
0.00050488
-0.00324627
0.000248238
-0.00321964
-5.31232e-05
-0.00303186
-0.000375055
-0.00269014
-0.000682014
-0.00222227
-0.00093009
-0.00167748
-0.00107421
-0.00112216
-0.00107943
-0.00062929
-0.000934384
-0.000262093
-0.000662972
-5.55317e-05
-0.000330406
-5.29932e-05
-0.000144134
0.000279818
-0.000497134
0.000781536
-0.000989737
0.00116421
-0.00156511
0.00140614
-0.0021742
0.00151562
-0.00277351
0.00150619
-0.00332268
0.00138733
-0.00378288
0.00116361
-0.0041167
0.000838704
-0.00429002
0.000421556
-0.00427578
-6.73629e-05
-0.00405933
-0.000591506
-0.00364452
-0.00109682
-0.00305934
-0.00151527
-0.00235896
-0.00177459
-0.0016234
-0.00181499
-0.000946932
-0.00161085
-0.000418654
-0.00119125
-9.8932e-05
-0.000650128
-0.000151925
-0.0001883
0.000468118
-0.000636809
0.00123004
-0.00124862
0.00177602
-0.00195183
0.00210934
-0.00268928
0.00225307
-0.00341281
0.00222972
-0.00407864
0.00205316
-0.00464443
0.0017294
-0.00506835
0.00126263
-0.00531043
0.000663633
-0.005336
-4.179e-05
-0.00512137
-0.000806141
-0.00466126
-0.00155694
-0.00397726
-0.00219927
-0.00312513
-0.00262672
-0.00219683
-0.00274328
-0.00131216
-0.00249552
-0.000596069
-0.00190734
-0.000145833
-0.00110036
-0.000297758
-0.000227306
0.000695423
-0.000761131
0.00176387
-0.00148055
0.00249544
-0.00230028
0.00292907
-0.00315659
0.00310938
-0.0039986
0.00307173
-0.00478136
0.00283591
-0.00546107
0.00240911
-0.00599286
0.00179442
-0.00633085
0.00100163
-0.0064309
5.8251e-05
-0.00625609
-0.000980949
-0.00578564
-0.00202739
-0.00502686
-0.00295805
-0.00402855
-0.00362503
-0.00289076
-0.00388108
-0.00176227
-0.00362401
-0.000816288
-0.00285332
-0.000203639
-0.00171301
-0.000501397
-0.000260801
0.000956224
-0.000868026
0.00237109
-0.00168086
0.00330828
-0.00260296
0.00385118
-0.00356593
0.00407234
-0.00451822
0.00402402
-0.00541592
0.00373362
-0.00621606
0.00320925
-0.00687246
0.00245082
-0.00733421
0.00146338
-0.00754686
0.000270903
-0.00745724
-0.00107058
-0.00702301
-0.00246162
-0.00622812
-0.00375294
-0.00510337
-0.00474978
-0.00374751
-0.00523694
-0.00233695
-0.00503457
-0.00110553
-0.00408474
-0.000281548
-0.00253699
-0.000782946
-0.000288005
0.00124423
-0.000954371
0.00303746
-0.00184268
0.00419659
-0.00284786
0.00485636
-0.00389875
0.00512323
-0.00494522
0.00507049
-0.00594683
0.00473522
-0.00686405
0.00412647
-0.00765222
0.00323899
-0.00825785
0.00206901
-0.00861772
0.00063077
-0.00866188
-0.00102641
-0.00832255
-0.00280095
-0.00755129
-0.00452419
-0.00634643
-0.00595464
-0.00478818
-0.00679519
-0.00306912
-0.00675363
-0.00149079
-0.00566307
-0.000390024
-0.00363776
-0.00117297
-0.000308123
0.00155235
-0.00101687
0.00374621
-0.00195817
0.00513789
-0.00302
0.00591819
-0.00413012
0.00623336
-0.00524177
0.00618214
-0.00632047
0.00581391
-0.00733338
0.00513939
-0.0082413
0.00414691
-0.00899274
0.00282045
-0.00952044
0.00115847
-0.00974133
-0.00080552
-0.00956247
-0.0029798
-0.00889697
-0.00518969
-0.00769503
-0.00715658
-0.00599302
-0.0084972
-0.00397284
-0.00877381
-0.00199603
-0.00763989
-0.000540788
-0.00509299
-0.00171376
-0.000321195
0.00187355
-0.00105412
0.00447914
-0.00202155
0.00610531
-0.0031054
0.00700204
-0.0042336
0.00736156
-0.0053646
0.00731313
-0.00647243
0.00692175
-0.00753455
0.0062015
-0.00852212
0.00513448
-0.00939229
0.00369062
-0.0100819
0.00184806
-0.0105032
-0.000384171
-0.0105451
-0.00293791
-0.0100826
-0.00565222
-0.00900584
-0.00823335
-0.00727779
-0.0102252
-0.00502536
-0.0110262
-0.00263509
-0.0100302
-0.000746552
-0.00698154
-0.00246031
-0.000329444
0.00220299
-0.00106975
0.00521945
-0.00203379
0.00706935
-0.00309704
0.00806529
-0.00418878
0.00845329
-0.00527467
0.00839903
-0.00633997
0.00798705
-0.00737603
0.00723756
-0.00836974
0.00612819
-0.00929455
0.00461542
-0.0101019
0.00265543
-0.0107128
0.000226737
-0.0110117
-0.00263897
-0.0108462
-0.00581778
-0.0100448
-0.0090347
-0.00847217
-0.0117979
-0.00614354
-0.0133549
-0.0033987
-0.012775
-0.00101955
-0.00936069
-0.00347986
-0.000339276
0.00254227
-0.00107668
0.00595686
-0.00200834
0.00800101
-0.00300183
0.00905878
-0.00398991
0.00944136
-0.0049486
0.00935772
-0.0058775
0.00891595
-0.00678531
0.00814537
-0.00767933
0.00702221
-0.00855642
0.00549251
-0.00939339
0.00349239
-0.0101356
0.00096897
-0.0106828
-0.00209178
-0.0108771
-0.00562352
-0.0105008
-0.00941093
-0.0093121
-0.0129866
-0.00716086
-0.0155061
-0.00423432
-0.0157015
-0.0013674
-0.0122276
-0.00484726
-0.000364271
0.00290654
-0.00110243
0.00669502
-0.00197699
0.00887557
-0.00284643
0.00992822
-0.00365248
0.0102474
-0.00438739
0.0100926
-0.00506939
0.00959795
-0.00572764
0.00880363
-0.00639294
0.0076875
-0.00709004
0.00618962
-0.00782907
0.00423142
-0.00859307
0.00173297
-0.00931935
-0.0013655
-0.00987496
-0.00506791
-0.0100308
-0.00925504
-0.00945956
-0.0135579
-0.00781765
-0.017148
-0.00502236
-0.0184968
-0.00178436
-0.0154656
-0.00663163
-0.000429918
0.00333646
-0.00119516
0.00746026
-0.00199336
0.00967377
-0.00267729
0.0106121
-0.00321086
0.010781
-0.00361352
0.0104953
-0.00392844
0.00991287
-0.00420804
0.00908323
-0.00450732
0.00798679
-0.00487942
0.00656172
-0.00536994
0.00472193
-0.0060068
0.00236984
-0.00678189
-0.000590413
-0.00761947
-0.00423033
-0.00832885
-0.00854566
-0.00855308
-0.0133337
-0.00777648
-0.0179246
-0.00555745
-0.0207159
-0.00223556
-0.0187875
-0.00886718
-0.000580348
0.00391681
-0.00142759
0.0083075
-0.0021264
0.0103726
-0.00254279
0.0110285
-0.00269151
0.0109297
-0.00263785
0.0104416
-0.00245866
0.00973368
-0.00223178
0.00885636
-0.00203477
0.00778977
-0.00194504
0.00647199
-0.00203927
0.00481616
-0.00238823
0.0027188
-0.00304386
6.52121e-05
-0.00401022
-0.00326397
-0.00518652
-0.00736936
-0.00627077
-0.0122494
-0.00666014
-0.0175352
-0.0055412
-0.0218348
-0.00263063
-0.0216981
-0.0114978
-0.000880322
0.00479713
-0.00188375
0.00931092
-0.00241545
0.0109043
-0.00241883
0.0110319
-0.0020176
0.0105285
-0.00135051
0.00977453
-0.000537242
0.00892041
0.000319026
0.00800009
0.00112376
0.00698504
0.00178302
0.00581272
0.00219917
0.00440001
0.00226945
0.00264853
0.00189058
0.000444073
0.000976303
-0.00234969
-0.000494899
-0.00589816
-0.00236507
-0.0103793
-0.00409003
-0.0158103
-0.004584
-0.0213408
-0.00278126
-0.0235008
-0.0142791
-0.00139258
0.00618971
-0.00256933
0.0104877
-0.00268139
0.0110163
-0.00195431
0.0103048
-0.000725112
0.00929927
0.000769073
0.00828035
0.00236889
0.00732059
0.00395706
0.00641192
0.00543526
0.00550684
0.00670794
0.00454004
0.00767142
0.00343654
0.00820805
0.0021119
0.00818283
0.00046929
0.00744736
-0.00161421
0.00586184
-0.00431264
0.00338393
-0.00790136
0.000326015
-0.0127524
-0.00221304
-0.0188018
-0.00236945
-0.0233444
-0.0166485
-0.00213921
0.00832892
-0.0029789
0.0113274
-0.0018354
0.00987285
0.000269028
0.00820041
0.00272242
0.00684588
0.00524847
0.00575429
0.00770534
0.00486373
0.0100045
0.00411276
0.0120772
0.00343413
0.0138513
0.00276593
0.0152382
0.00204964
0.0161274
0.00122275
0.0163777
0.000219004
0.0158128
-0.00104935
0.014214
-0.00271384
0.0113412
-0.00502861
0.00710349
-0.00851464
0.00220268
-0.013901
-0.000989797
-0.0201519
-0.0176383
-0.00246495
0.0107939
1.06351e-05
0.00885177
0.00417161
0.00571188
0.00825931
0.0041127
0.0119716
0.00313357
0.0152905
0.00243537
0.0182264
0.00192783
0.0207938
0.00154537
0.0229953
0.0012327
0.0248133
0.000947871
0.0262059
0.000657026
0.0270958
0.00033286
0.0273629
-4.81154e-05
0.0268399
-0.00052635
0.0252788
-0.00115265
0.022318
-0.0020679
0.0174491
-0.00364565
0.0102844
-0.00673628
0.00240261
-0.0122702
-0.0152357
0.0107939
0.0196456
0.0253575
0.0294702
0.0326038
0.0350392
0.036967
0.0385124
0.0397451
0.0406929
0.04135
0.0416828
0.0416347
0.0411084
0.0399557
0.0378878
0.0342422
0.0275059
0.0152357
)
;

boundaryField
{
    movingWall
    {
        type            calculated;
        value           uniform 0;
    }
    fixedWalls
    {
        type            calculated;
        value           uniform 0;
    }
    frontAndBack
    {
        type            empty;
    }
}


// ************************************************************************* //
