/*--------------------------------*- C++ -*----------------------------------*\
  =========                 |
  \\      /  F ield         | OpenFOAM: The Open Source CFD Toolbox
   \\    /   O peration     | Website:  https://openfoam.org
    \\  /    A nd           | Version:  13
     \\/     M anipulation  |
\*---------------------------------------------------------------------------*/
FoamFile
{
    format      ascii;
    class       surfaceScalarField;
    location    "15";
    object      phi_0;
}
// * * * * * * * * * * * * * * * * * * * * * * * * * * * * * * * * * * * * * //

dimensions      [0 3 -1 0 0 0 0];

internalField   nonuniform List<scalar> 
760
(
1.04888e-06
-1.04978e-06
-3.83038e-05
3.93532e-05
-0.000118423
8.01203e-05
-0.000225705
0.000107282
-0.000346542
0.000120837
-0.000469493
0.000122951
-0.000584692
0.000115198
-0.000682842
9.81492e-05
-0.000754698
7.18562e-05
-0.000791404
3.6705e-05
-0.00078569
-5.71369e-06
-0.000733769
-5.19214e-05
-0.00063739
-9.63787e-05
-0.000505431
-0.000131958
-0.00035418
-0.000151251
-0.000205622
-0.000148557
-8.35096e-05
-0.000122112
-7.52658e-06
-7.5983e-05
1.44435e-05
-2.197e-05
1.44432e-05
-4.15572e-05
4.05075e-05
-0.000178597
0.000176395
-0.000400299
0.000301824
-0.000678667
0.000385651
-0.000984697
0.000426866
-0.001292
0.000430251
-0.00157652
0.000399722
-0.00181544
0.000337063
-0.00198676
0.000243182
-0.0020705
0.000120442
-0.00205132
-2.48995e-05
-0.00192229
-0.000180947
-0.00168894
-0.000329729
-0.00137203
-0.000448859
-0.00100786
-0.000515427
-0.000644434
-0.00051198
-0.0003332
-0.000433346
-0.000116691
-0.000292491
-1.40918e-05
-0.000124571
3.51086e-07
-9.28138e-05
0.000133322
-0.000336015
0.000419599
-0.000691117
0.000656926
-0.00111742
0.000811951
-0.00157581
0.000885257
-0.00203036
0.000884802
-0.00244769
0.000817046
-0.00279593
0.000685302
-0.00304475
0.000492004
-0.00316702
0.000242711
-0.00314218
-4.97387e-05
-0.00296086
-0.000362263
-0.00262978
-0.000660808
-0.00217553
-0.000903114
-0.00164545
-0.00104551
-0.00110374
-0.00105368
-0.000621393
-0.000915695
-0.000260437
-0.000653448
-5.60318e-05
-0.000328978
-5.56806e-05
-0.000140485
0.000273808
-0.000484794
0.000763908
-0.00096527
0.0011374
-0.00152639
0.00137307
-0.00212018
0.00147905
-0.00270416
0.00146878
-0.00323907
0.00135196
-0.00368728
0.00113352
-0.00401263
0.000817356
-0.00418213
0.000412205
-0.00416953
-6.23347e-05
-0.00396049
-0.000571304
-0.00355846
-0.00106284
-0.00299021
-0.00147136
-0.0023089
-0.00172681
-0.00159196
-0.00177062
-0.00093101
-0.00157665
-0.000413191
-0.00117127
-9.84278e-05
-0.000643741
-0.000154108
-0.000183253
0.000457062
-0.000620428
0.00120108
-0.00121696
0.00173393
-0.00190264
0.00205875
-0.00262158
0.00219799
-0.00332673
0.00217393
-0.00397548
0.0020007
-0.00452674
0.00168478
-0.00494003
0.00123064
-0.00517657
0.000648745
-0.00520268
-3.62204e-05
-0.0049952
-0.000778785
-0.00454875
-0.00150929
-0.00388398
-0.00213613
-0.00305473
-0.00255606
-0.00215012
-0.00267524
-0.00128654
-0.00244023
-0.000585934
-0.00187187
-0.000144111
-0.00108556
-0.000298219
-0.00022123
0.000678291
-0.000741844
0.00172169
-0.00144378
0.00243586
-0.00224372
0.00285869
-0.00307929
0.00303356
-0.00390073
0.00299538
-0.00466422
0.00276419
-0.00532721
0.00234777
-0.0058461
0.00174953
-0.0061763
0.000978945
-0.00627478
6.22556e-05
-0.00610549
-0.000948075
-0.00564801
-0.00196677
-0.00490926
-0.00287488
-0.00393653
-0.00352879
-0.002827
-0.00378477
-0.0017254
-0.00354182
-0.000800608
-0.00279667
-0.000200458
-0.00168571
-0.000498677
-0.000254271
0.000932562
-0.000847565
0.00231499
-0.0016421
0.0032304
-0.0025436
0.0037602
-0.003485
0.00397495
-0.00441581
0.00392618
-0.00529314
0.00364153
-0.00607511
0.00312973
-0.0067167
0.00239112
-0.00716822
0.00143047
-0.00737644
0.000270477
-0.00728934
-0.00103517
-0.00686552
-0.00239059
-0.00608928
-0.00365111
-0.00499072
-0.00462736
-0.00366619
-0.0051093
-0.00228774
-0.00492028
-0.00108345
-0.00400095
-0.000276615
-0.00249254
-0.000775292
-0.000281786
0.00121435
-0.000934981
0.00296818
-0.00180597
0.00410139
-0.00279159
0.00474582
-0.00382194
0.0050053
-0.00484779
0.00495204
-0.00582956
0.00462329
-0.00672856
0.00402874
-0.00750105
0.00316361
-0.00809454
0.00202395
-0.00844694
0.000622882
-0.00848964
-0.000992475
-0.00815623
-0.002724
-0.00739951
-0.00440784
-0.00621824
-0.00580862
-0.00469141
-0.00663614
-0.00300764
-0.00660404
-0.00146173
-0.00554687
-0.00038302
-0.00357125
-0.00115831
-0.000303105
0.00151745
-0.00100113
0.00366621
-0.0019281
0.00502837
-0.00297359
0.00579131
-0.00406641
0.00609811
-0.00516054
0.00604617
-0.00622213
0.00568487
-0.00721887
0.00502549
-0.00811208
0.00405682
-0.00885088
0.00276275
-0.00936883
0.00114083
-0.00958401
-0.000777291
-0.00940512
-0.00290289
-0.0087472
-0.00506577
-0.00756221
-0.00699361
-0.00588713
-0.00831122
-0.00390151
-0.00858966
-0.00196018
-0.0074882
-0.000531458
-0.00499998
-0.00168977
-0.000318284
0.00183574
-0.00104462
0.00439255
-0.00200281
0.00598655
-0.00307577
0.00686428
-0.00419225
0.00721459
-0.00531127
0.0071652
-0.00640726
0.00678086
-0.0074578
0.00607603
-0.00843411
0.00503313
-0.00929337
0.003622
-0.00997262
0.00182008
-0.0103849
-0.000365035
-0.0104204
-0.00286741
-0.00995633
-0.00552979
-0.00888591
-0.00806403
-0.00717477
-0.0100224
-0.00495027
-0.0108142
-0.00259418
-0.00984429
-0.000734849
-0.00685931
-0.00242462
-0.000329406
0.00216514
-0.00106868
0.00513183
-0.00203034
0.00694821
-0.00309014
0.00792407
-0.00417784
0.00830229
-0.00525954
0.00824689
-0.00632059
0.00784191
-0.00735212
0.00710757
-0.00834053
0.00602154
-0.00925865
0.00454011
-0.0100574
0.00261887
-0.0106578
0.000235333
-0.010945
-0.00258021
-0.0107685
-0.00570633
-0.00996032
-0.00887217
-0.00838958
-0.0115931
-0.00607541
-0.0131283
-0.00335685
-0.0125629
-0.00100587
-0.00921029
-0.00343049
-0.000342554
0.0025077
-0.00108533
0.00587461
-0.0020226
0.00788548
-0.00302135
0.00892283
-0.00401447
0.0092954
-0.00497816
0.00921058
-0.00591186
0.00877561
-0.00682371
0.00801942
-0.00772006
0.0069179
-0.0085966
0.00541666
-0.00942897
0.00345124
-0.0101617
0.000968075
-0.0106943
-0.0020476
-0.0108701
-0.0055306
-0.0104743
-0.00926792
-0.00927022
-0.0127972
-0.00711441
-0.0152841
-0.00419866
-0.0154786
-0.00135297
-0.012056
-0.00478346
-0.000370806
0.00287851
-0.00112069
0.00662449
-0.00200893
0.00877371
-0.00289252
0.00980642
-0.00371285
0.0101157
-0.00446202
0.00995974
-0.00515779
0.00947139
-0.00582851
0.00869013
-0.00650372
0.00759311
-0.00720674
0.00611968
-0.00794617
0.00419067
-0.00870369
0.0017256
-0.00941568
-0.00133561
-0.00994917
-0.00499711
-0.0100767
-0.00914038
-0.00947502
-0.0133989
-0.00780818
-0.016951
-0.00500248
-0.0182843
-0.00177162
-0.0152868
-0.00655508
-0.000438993
0.0033175
-0.00122113
0.00740663
-0.00203984
0.00959242
-0.00274557
0.0105121
-0.0033013
0.0106715
-0.00372586
0.0103843
-0.00406166
0.00980719
-0.00436006
0.00898854
-0.00467481
0.00790785
-0.00505761
0.00650249
-0.00555267
0.00468572
-0.00618661
0.00235954
-0.00695011
-0.000572103
-0.00776655
-0.00418067
-0.00844513
-0.0084618
-0.00863079
-0.0132132
-0.00781359
-0.0177682
-0.00556262
-0.0205353
-0.00222833
-0.0186211
-0.00878341
-0.00059048
0.00390798
-0.00145738
0.00827353
-0.00218079
0.0103158
-0.00262381
0.0109552
-0.00279962
0.0108473
-0.00277238
0.0103571
-0.00261784
0.00965266
-0.0024127
0.00878339
-0.00223341
0.00772856
-0.00215622
0.0064253
-0.0022569
0.0047864
-0.00260543
0.00270807
-0.00325293
7.54005e-05
-0.00420241
-0.00323119
-0.00535182
-0.00731239
-0.00639839
-0.0121666
-0.00674143
-0.0174252
-0.00557577
-0.0217009
-0.00263333
-0.0215636
-0.0114167
-0.000889282
0.00479726
-0.00191153
0.00929578
-0.00246778
0.0108721
-0.00249841
0.0109858
-0.00212506
0.0104739
-0.00148493
0.00971692
-0.000696374
0.0088641
0.000138513
0.0079485
0.000926374
0.0069407
0.0015738
0.00577788
0.00198359
0.00437661
0.00205319
0.00263847
0.00167955
0.000449041
0.000776991
-0.00232863
-0.000674594
-0.00586081
-0.00251511
-0.0103261
-0.00419917
-0.0157411
-0.00464316
-0.0212569
-0.00279605
-0.0234107
-0.0142128
-0.00139768
0.00619494
-0.00258838
0.0104865
-0.00272008
0.0110038
-0.00201606
0.0102818
-0.000811145
0.009269
0.000659315
0.00824646
0.0022374
0.00728602
0.00380694
0.00637896
0.00527032
0.00547732
0.00653256
0.00451564
0.00749002
0.00341915
0.00802497
0.00210352
0.00800242
0.000471592
0.00727431
-0.00160051
0.00570176
-0.00428826
0.00324418
-0.00786855
0.000217515
-0.0127144
-0.00228158
-0.0187578
-0.00239162
-0.0233006
-0.0166044
-0.00213857
0.00833351
-0.00298465
0.0113326
-0.00185243
0.00987155
0.000236618
0.00819274
0.0026725
0.00683312
0.00518067
0.00573829
0.00762057
0.00484611
0.00990462
0.00409491
0.0119648
0.00341715
0.0137294
0.00275099
0.0151097
0.00203887
0.0159951
0.00121817
0.0162448
0.000221851
0.0156835
-0.00103919
0.0140936
-0.0026984
0.0112351
-0.00501003
0.00701709
-0.0084964
0.00214461
-0.0138854
-0.00101302
-0.020143
-0.0176174
-0.00246215
0.0107957
1.41721e-05
0.00885624
0.00417264
0.00571309
0.00825305
0.00411233
0.0119557
0.00313049
0.0152642
0.00242979
0.0181894
0.00192091
0.0207461
0.00153819
0.022937
0.00122623
0.0247449
0.000943082
0.0261292
0.00065465
0.027014
0.000333283
0.0272803
-4.43793e-05
0.0267602
-0.000519087
0.0252048
-0.00114304
0.0222541
-0.0020593
0.0173988
-0.00364117
0.0102502
-0.00673675
0.00238253
-0.0122753
-0.0152349
0.0107957
0.0196519
0.025365
0.0294773
0.0326078
0.0350376
0.0369585
0.0384967
0.0397229
0.040666
0.0413207
0.0416539
0.0416096
0.0410905
0.0399474
0.0378881
0.034247
0.0275102
0.0152349
)
;

boundaryField
{
    movingWall
    {
        type            calculated;
        value           uniform 0;
    }
    fixedWalls
    {
        type            calculated;
        value           uniform 0;
    }
    frontAndBack
    {
        type            empty;
    }
}


// ************************************************************************* //
