/*--------------------------------*- C++ -*----------------------------------*\
  =========                 |
  \\      /  F ield         | OpenFOAM: The Open Source CFD Toolbox
   \\    /   O peration     | Website:  https://openfoam.org
    \\  /    A nd           | Version:  13
     \\/     M anipulation  |
\*---------------------------------------------------------------------------*/
FoamFile
{
    format      ascii;
    class       volVectorField;
    location    "15";
    object      U_0;
}
// * * * * * * * * * * * * * * * * * * * * * * * * * * * * * * * * * * * * * //

dimensions      [0 1 -1 0 0 0 0];

internalField   nonuniform List<vector> 
400
(
(0.000123438 -0.000125758 0)
(-0.000206835 6.96571e-05 0)
(-0.00143221 0.00027241 0)
(-0.00335892 0.000402459 0)
(-0.00569409 0.000468672 0)
(-0.00817954 0.000487782 0)
(-0.0106037 0.000469033 0)
(-0.0127773 0.000413837 0)
(-0.0145148 0.000319326 0)
(-0.0156322 0.000183413 0)
(-0.0159624 9.96875e-06 0)
(-0.0153878 -0.000187182 0)
(-0.0138818 -0.000382362 0)
(-0.0115477 -0.000540281 0)
(-0.00863958 -0.000622789 0)
(-0.00555037 -0.000599607 0)
(-0.00275606 -0.000459932 0)
(-0.000716795 -0.000221327 0)
(0.000271047 5.62966e-05 0)
(0.00022914 0.000224242 0)
(-7.82082e-05 0.000203287 0)
(-0.00179516 0.00170684 0)
(-0.00546583 0.00322403 0)
(-0.0106019 0.00425452 0)
(-0.016581 0.00477502 0)
(-0.0228359 0.00485287 0)
(-0.0288652 0.00454213 0)
(-0.0342033 0.00386437 0)
(-0.0383998 0.00282497 0)
(-0.0410268 0.00144372 0)
(-0.0417179 -0.000212952 0)
(-0.0402354 -0.00200825 0)
(-0.0365526 -0.0037285 0)
(-0.0309262 -0.00510266 0)
(-0.0239324 -0.00585146 0)
(-0.0164354 -0.00576211 0)
(-0.0094702 -0.00477234 0)
(-0.00403486 -0.00304374 0)
(-0.000810612 -0.00102786 0)
(0.000125422 0.000316048 0)
(-0.000327008 0.00154112 0)
(-0.00371112 0.00549808 0)
(-0.00982187 0.00898127 0)
(-0.0178369 0.0113075 0)
(-0.0268774 0.0124429 0)
(-0.0361816 0.0125034 0)
(-0.0450617 0.0115892 0)
(-0.0528679 0.00974991 0)
(-0.058974 0.00701762 0)
(-0.0627933 0.00346863 0)
(-0.0638319 -0.000711731 0)
(-0.0617711 -0.00518276 0)
(-0.0565676 -0.00943948 0)
(-0.048545 -0.0128567 0)
(-0.0384468 -0.0147959 0)
(-0.0274131 -0.0147692 0)
(-0.0168469 -0.012629 0)
(-0.0081591 -0.00873292 0)
(-0.00243224 -0.00404649 0)
(-4.80658e-05 -0.000370995 0)
(-0.00054829 0.00388612 0)
(-0.00552251 0.0114021 0)
(-0.0139561 0.0173805 0)
(-0.0246349 0.0212381 0)
(-0.0364234 0.0230274 0)
(-0.0484121 0.0229461 0)
(-0.0597953 0.0211501 0)
(-0.0698088 0.017722 0)
(-0.0777099 0.0127279 0)
(-0.082794 0.00631422 0)
(-0.0844503 -0.00119164 0)
(-0.0822506 -0.00920908 0)
(-0.0760641 -0.0168864 0)
(-0.0661753 -0.0231637 0)
(-0.0533785 -0.0269362 0)
(-0.0389975 -0.0273205 0)
(-0.0247781 -0.0239817 0)
(-0.0126117 -0.0174325 0)
(-0.00413066 -0.00918227 0)
(-0.000198348 -0.00189971 0)
(-0.000739088 0.00714009 0)
(-0.00715992 0.0192508 0)
(-0.0177436 0.028195 0)
(-0.0308883 0.0337531 0)
(-0.0452116 0.0361962 0)
(-0.0596879 0.0358627 0)
(-0.0734416 0.0329847 0)
(-0.0856453 0.0276777 0)
(-0.0954812 0.0200325 0)
(-0.102145 0.010252 0)
(-0.104894 -0.00120878 0)
(-0.103134 -0.0135351 0)
(-0.0965495 -0.0255107 0)
(-0.0852628 -0.0355788 0)
(-0.0699939 -0.0420454 0)
(-0.0521727 -0.0434511 0)
(-0.0339074 -0.0390777 0)
(-0.017716 -0.029457 0)
(-0.00601028 -0.0166388 0)
(-0.000339653 -0.00428946 0)
(-0.000902685 0.0112007 0)
(-0.00861569 0.0288604 0)
(-0.0211437 0.0412214 0)
(-0.0365396 0.0486498 0)
(-0.0532015 0.0517704 0)
(-0.0700213 0.0511364 0)
(-0.0860954 0.0470826 0)
(-0.100577 0.0397542 0)
(-0.112608 0.0292411 0)
(-0.121299 0.0157601 0)
(-0.125756 -0.000158021 0)
(-0.125161 -0.0175123 0)
(-0.118909 -0.0347407 0)
(-0.106816 -0.0497442 0)
(-0.089372 -0.0600947 0)
(-0.0679877 -0.0634989 0)
(-0.0451187 -0.0585296 0)
(-0.0240693 -0.0454716 0)
(-0.00835018 -0.0268742 0)
(-0.000510102 -0.00766678 0)
(-0.00103886 0.0159718 0)
(-0.00987868 0.0400333 0)
(-0.0241069 0.0562337 0)
(-0.0414917 0.0657125 0)
(-0.0602487 0.0695783 0)
(-0.079225 0.068676 0)
(-0.0975311 0.0634752 0)
(-0.114346 0.0541438 0)
(-0.128812 0.0407323 0)
(-0.139978 0.0234053 0)
(-0.146802 0.00268197 0)
(-0.148204 -0.0203426 0)
(-0.143201 -0.0438275 0)
(-0.131153 -0.0651262 0)
(-0.112118 -0.0809372 0)
(-0.0872742 -0.0878125 0)
(-0.0592953 -0.0831344 0)
(-0.0323684 -0.066464 0)
(-0.0115053 -0.0406799 0)
(-0.000755706 -0.0123301 0)
(-0.00114447 0.0213503 0)
(-0.0109236 0.0525392 0)
(-0.0265536 0.0729508 0)
(-0.0455841 0.084654 0)
(-0.0660843 0.0893633 0)
(-0.0868949 0.0882964 0)
(-0.107185 0.0820926 0)
(-0.126209 0.0709375 0)
(-0.143163 0.0547984 0)
(-0.157087 0.0337068 0)
(-0.166828 0.00805621 0)
(-0.171054 -0.0211007 0)
(-0.168365 -0.0517743 0)
(-0.157543 -0.0808406 0)
(-0.13798 -0.104049 0)
(-0.1103 -0.11647 0)
(-0.0770775 -0.11366 0)
(-0.0432953 -0.0936621 0)
(-0.0158815 -0.0592011 0)
(-0.00113325 -0.0187766 0)
(-0.00121675 0.0272192 0)
(-0.0117233 0.0661025 0)
(-0.0283926 0.091013 0)
(-0.0486152 0.105069 0)
(-0.0703429 0.110711 0)
(-0.0924451 0.109613 0)
(-0.114194 0.102629 0)
(-0.134974 0.0899653 0)
(-0.154104 0.0714686 0)
(-0.170701 0.0469575 0)
(-0.183591 0.0165732 0)
(-0.191273 -0.0188446 0)
(-0.191972 -0.0573581 0)
(-0.183842 -0.09555 0)
(-0.165406 -0.128287 0)
(-0.13633 -0.148931 0)
(-0.0985332 -0.150503 0)
(-0.0573705 -0.128334 0)
(-0.021925 -0.083907 0)
(-0.00171822 -0.0277293 0)
(-0.00125914 0.0334513 0)
(-0.0122768 0.080405 0)
(-0.0295687 0.10997 0)
(-0.0504073 0.126401 0)
(-0.0726425 0.132985 0)
(-0.0952042 0.13195 0)
(-0.11751 0.124419 0)
(-0.139136 0.110639 0)
(-0.159605 0.0903211 0)
(-0.178222 0.0630107 0)
(-0.193938 0.0284833 0)
(-0.205247 -0.0128175 0)
(-0.210159 -0.059268 0)
(-0.206281 -0.107475 0)
(-0.191172 -0.151705 0)
(-0.163139 -0.183646 0)
(-0.122706 -0.193185 0)
(-0.0746982 -0.171394 0)
(-0.0300855 -0.11647 0)
(-0.00261574 -0.040166 0)
(-0.0012906 0.0399355 0)
(-0.0126552 0.0951178 0)
(-0.0301388 0.129293 0)
(-0.0509059 0.147923 0)
(-0.0727091 0.155286 0)
(-0.0945722 0.154269 0)
(-0.116105 0.14634 0)
(-0.137137 0.131828 0)
(-0.15748 0.110322 0)
(-0.176755 0.0810763 0)
(-0.194214 0.0434289 0)
(-0.208592 -0.00273249 0)
(-0.21795 -0.0563834 0)
(-0.219607 -0.114587 0)
(-0.210264 -0.171555 0)
(-0.186647 -0.217744 0)
(-0.147095 -0.239738 0)
(-0.0945531 -0.222755 0)
(-0.0407056 -0.158471 0)
(-0.00397323 -0.0573379 0)
(-0.00136003 0.0466341 0)
(-0.0130667 0.109972 0)
(-0.0303715 0.148415 0)
(-0.0503027 0.168751 0)
(-0.0705234 0.176437 0)
(-0.0902085 0.175151 0)
(-0.109223 0.166785 0)
(-0.12771 0.151812 0)
(-0.145853 0.129746 0)
(-0.163699 0.0995857 0)
(-0.180986 0.060224 0)
(-0.196944 0.0109055 0)
(-0.210048 -0.0481826 0)
(-0.217748 -0.115041 0)
(-0.216286 -0.184597 0)
(-0.200918 -0.247019 0)
(-0.167262 -0.286191 0)
(-0.114838 -0.280461 0)
(-0.0537681 -0.21081 0)
(-0.00599179 -0.0807393 0)
(-0.00157022 0.0536902 0)
(-0.0139503 0.12488 0)
(-0.0308632 0.1668 0)
(-0.0491522 0.187868 0)
(-0.0664415 0.195003 0)
(-0.0821791 0.192822 0)
(-0.0965877 0.183713 0)
(-0.110195 0.168349 0)
(-0.123612 0.14624 0)
(-0.13739 0.116203 0)
(-0.15187 0.0767663 0)
(-0.166992 0.0265522 0)
(-0.182002 -0.0352039 0)
(-0.195015 -0.107835 0)
(-0.20248 -0.187824 0)
(-0.198787 -0.266449 0)
(-0.176875 -0.326501 0)
(-0.131595 -0.339836 0)
(-0.0684467 -0.272728 0)
(-0.00892406 -0.11195 0)
(-0.00211995 0.0616116 0)
(-0.0161048 0.140099 0)
(-0.032645 0.184006 0)
(-0.0484113 0.204132 0)
(-0.0611736 0.209306 0)
(-0.0709091 0.205219 0)
(-0.0783707 0.194774 0)
(-0.0845565 0.178859 0)
(-0.0905372 0.157033 0)
(-0.0973751 0.128037 0)
(-0.106041 0.0901674 0)
(-0.117274 0.0415733 0)
(-0.131321 -0.0193818 0)
(-0.147455 -0.0935085 0)
(-0.16317 -0.17951 0)
(-0.173097 -0.271336 0)
(-0.16838 -0.353274 0)
(-0.138871 -0.393141 0)
(-0.0824609 -0.340529 0)
(-0.0129995 -0.152199 0)
(-0.00336193 0.0715523 0)
(-0.0208408 0.156417 0)
(-0.0371812 0.199663 0)
(-0.0492035 0.216184 0)
(-0.0553416 0.217366 0)
(-0.0565941 0.210011 0)
(-0.0545109 0.19743 0)
(-0.0506581 0.180646 0)
(-0.0465642 0.159267 0)
(-0.0437429 0.132029 0)
(-0.0437043 0.097158 0)
(-0.047914 0.0525678 0)
(-0.057637 -0.00396196 0)
(-0.0735553 -0.0744948 0)
(-0.0949423 -0.160138 0)
(-0.118082 -0.258762 0)
(-0.134146 -0.359267 0)
(-0.129068 -0.430196 0)
(-0.0913561 -0.406488 0)
(-0.0181058 -0.201529 0)
(-0.00578798 0.0857892 0)
(-0.0299719 0.175216 0)
(-0.045827 0.213087 0)
(-0.0516209 0.221965 0)
(-0.047769 0.216522 0)
(-0.037157 0.204388 0)
(-0.0224628 0.188915 0)
(-0.0058808 0.171029 0)
(0.0106662 0.15028 0)
(0.025352 0.125426 0)
(0.0363153 0.0947466 0)
(0.0415794 0.0561731 0)
(0.0390793 0.00731272 0)
(0.0268382 -0.0545833 0)
(0.00352544 -0.132512 0)
(-0.0300017 -0.228583 0)
(-0.0674213 -0.339063 0)
(-0.0935274 -0.439859 0)
(-0.0879067 -0.458762 0)
(-0.0230916 -0.258115 0)
(-0.00993233 0.109255 0)
(-0.0449048 0.198155 0)
(-0.0570296 0.221816 0)
(-0.0501599 0.217261 0)
(-0.0299995 0.202379 0)
(-0.00247614 0.184428 0)
(0.0285247 0.165961 0)
(0.0603737 0.147358 0)
(0.0910272 0.127902 0)
(0.118635 0.106329 0)
(0.141269 0.0810613 0)
(0.156767 0.0502498 0)
(0.162636 0.011715 0)
(0.156046 -0.0372785 0)
(0.133989 -0.100496 0)
(0.0941294 -0.183193 0)
(0.0379114 -0.290065 0)
(-0.0227109 -0.411335 0)
(-0.0619903 -0.481927 0)
(-0.0250921 -0.318015 0)
(-0.0175655 0.152711 0)
(-0.0617264 0.22403 0)
(-0.0543284 0.216464 0)
(-0.0188041 0.192175 0)
(0.0281557 0.167223 0)
(0.0784089 0.144802 0)
(0.128288 0.125251 0)
(0.175761 0.107879 0)
(0.219406 0.0915089 0)
(0.257914 0.0748315 0)
(0.289745 0.0565194 0)
(0.312963 0.0351012 0)
(0.325097 0.00890383 0)
(0.323057 -0.0242037 0)
(0.302988 -0.0674629 0)
(0.260162 -0.126847 0)
(0.190179 -0.213326 0)
(0.0957134 -0.33562 0)
(8.45921e-06 -0.454507 0)
(-0.0169278 -0.3662 0)
(-0.0238314 0.209082 0)
(-0.0372358 0.231359 0)
(0.0377149 0.176779 0)
(0.124499 0.136207 0)
(0.203618 0.107637 0)
(0.273813 0.0863276 0)
(0.335962 0.0701434 0)
(0.390623 0.0574302 0)
(0.438081 0.046721 0)
(0.478119 0.0368338 0)
(0.510254 0.026762 0)
(0.53338 0.0155511 0)
(0.545494 0.00222944 0)
(0.543802 -0.0143846 0)
(0.524305 -0.0363166 0)
(0.481309 -0.0675574 0)
(0.406406 -0.118098 0)
(0.287474 -0.20898 0)
(0.131014 -0.338273 0)
(0.0374208 -0.339646 0)
(0.242082 0.109369 0)
(0.314236 0.0974406 0)
(0.445515 0.0570281 0)
(0.550711 0.0349509 0)
(0.624542 0.0234181 0)
(0.679066 0.0163093 0)
(0.721705 0.0115803 0)
(0.755845 0.0083557 0)
(0.783245 0.00603735 0)
(0.804817 0.0041914 0)
(0.820791 0.00247846 0)
(0.830788 0.000651408 0)
(0.833884 -0.00147831 0)
(0.828575 -0.00406333 0)
(0.812417 -0.0074277 0)
(0.781262 -0.0123012 0)
(0.726429 -0.0207923 0)
(0.630652 -0.0378471 0)
(0.459494 -0.0859896 0)
(0.30475 -0.125822 0)
)
;

boundaryField
{
    movingWall
    {
        type            calculated;
        value           uniform (1 0 0);
    }
    fixedWalls
    {
        type            calculated;
        value           uniform (0 0 0);
    }
    frontAndBack
    {
        type            empty;
    }
}


// ************************************************************************* //
