/*--------------------------------*- C++ -*----------------------------------*\
  =========                 |
  \\      /  F ield         | OpenFOAM: The Open Source CFD Toolbox
   \\    /   O peration     | Website:  https://openfoam.org
    \\  /    A nd           | Version:  13
     \\/     M anipulation  |
\*---------------------------------------------------------------------------*/
FoamFile
{
    format      ascii;
    class       surfaceScalarField;
    location    "48";
    object      phi;
}
// * * * * * * * * * * * * * * * * * * * * * * * * * * * * * * * * * * * * * //

dimensions      [0 3 -1 0 0 0 0];

internalField   nonuniform List<scalar> 
760
(
4.57739e-06
-4.78386e-06
-3.89006e-05
4.34776e-05
-0.000131825
9.29236e-05
-0.000258166
0.000126341
-0.000401934
0.000143767
-0.000549693
0.000147758
-0.000689517
0.000139825
-0.000809608
0.000120092
-0.000897736
8.81281e-05
-0.000941944
4.4209e-05
-0.000932487
-9.45625e-06
-0.000864619
-6.78678e-05
-0.000741421
-0.000123198
-0.000575698
-0.000165723
-0.000389778
-0.000185921
-0.000212423
-0.000177356
-7.28488e-05
-0.000139574
7.18268e-06
-8.00309e-05
2.28165e-05
-1.56335e-05
2.28164e-05
-4.74886e-05
4.27048e-05
-0.000210499
0.000206486
-0.00047556
0.000357983
-0.000809962
0.00046074
-0.00117925
0.00051306
-0.00155174
0.000520243
-0.00189776
0.00048585
-0.00218828
0.000410607
-0.00239473
0.00029459
-0.00249118
0.000140653
-0.00245828
-4.23454e-05
-0.00228855
-0.000237598
-0.00199131
-0.000420438
-0.0015957
-0.000561336
-0.00114987
-0.000631756
-0.000714865
-0.000612361
-0.000352892
-0.000501546
-0.000111403
-0.000321519
-5.73154e-06
-0.000121305
1.70846e-05
-0.000112429
0.000155132
-0.000407511
0.000501566
-0.00083887
0.000789339
-0.00135716
0.000979026
-0.00191518
0.00107108
-0.0024692
0.00107426
-0.00297769
0.000994348
-0.00340014
0.000833057
-0.00369758
0.000592037
-0.00383556
0.000278634
-0.00378906
-8.88459e-05
-0.00354856
-0.000478094
-0.00312593
-0.000843076
-0.00255829
-0.00112898
-0.00190796
-0.00128208
-0.00125611
-0.00126422
-0.000688784
-0.00106887
-0.000276685
-0.000733618
-5.33295e-05
-0.000344661
-3.62447e-05
-0.000174292
0.000329424
-0.000596917
0.000924188
-0.00118527
0.00137769
-0.00187096
0.00166471
-0.0025956
0.00179572
-0.00330723
0.00178589
-0.003957
0.00164413
-0.00449743
0.00137349
-0.00488289
0.000977501
-0.00507262
0.000468359
-0.00503568
-0.000125781
-0.00475737
-0.000756408
-0.00424601
-0.00135444
-0.0035389
-0.00183609
-0.00270505
-0.00211593
-0.00184134
-0.00212792
-0.00105879
-0.00185141
-0.000458555
-0.00133386
-0.000103672
-0.000699544
-0.000139916
-0.000229361
0.000558785
-0.00076723
0.00146205
-0.00149769
0.00210815
-0.00233389
0.00250092
-0.00320777
0.0026696
-0.00406191
0.00264004
-0.00484369
0.00242591
-0.00550206
0.00203185
-0.00598711
0.00146256
-0.00625234
0.00073359
-0.00625896
-0.000119163
-0.00598222
-0.00103314
-0.00541971
-0.00191695
-0.0046005
-0.00265529
-0.00359313
-0.0031233
-0.00250742
-0.00321363
-0.00148377
-0.00287507
-0.000665359
-0.00215227
-0.000158546
-0.00120636
-0.000298462
-0.000275741
0.000834526
-0.000911699
0.00209801
-0.00176413
0.00296058
-0.00273053
0.00346732
-0.00373542
0.00367448
-0.00471859
0.00362321
-0.00562665
0.00333398
-0.00640784
0.00281304
-0.00700998
0.00206471
-0.00738114
0.00110475
-0.00747271
-2.75917e-05
-0.00724518
-0.00126067
-0.00667791
-0.00248422
-0.00578221
-0.00355099
-0.00461661
-0.0042889
-0.00329812
-0.00453212
-0.00199922
-0.00417397
-0.00091871
-0.00323279
-0.000225485
-0.00189958
-0.000523948
-0.000311503
0.00114603
-0.00102401
0.00281052
-0.00197279
0.00390936
-0.0030436
0.00453814
-0.00415624
0.00478712
-0.00525035
0.00471733
-0.0062746
0.00435822
-0.00717936
0.0037178
-0.0079126
0.00279796
-0.00841833
0.00161048
-0.00863757
0.000191654
-0.00851334
-0.0013849
-0.00800031
-0.00299725
-0.00708181
-0.00446948
-0.00579307
-0.00557764
-0.00424586
-0.00607934
-0.0026407
-0.00577913
-0.00124405
-0.00462944
-0.00031393
-0.0028297
-0.000837879
-0.000334723
0.00148075
-0.00109805
0.00357385
-0.00211173
0.00492304
-0.00325395
0.00568035
-0.00444243
0.00597561
-0.00561911
0.00589402
-0.00673749
0.0054766
-0.00775324
0.00473355
-0.00861781
0.00366254
-0.0092744
0.00226707
-0.00965634
0.000573595
-0.00968952
-0.00135172
-0.00930091
-0.00338587
-0.00843669
-0.0053337
-0.00709245
-0.00692188
-0.00535354
-0.00781825
-0.00343196
-0.00770071
-0.00166562
-0.00639578
-0.000434216
-0.00406109
-0.0012721
-0.000344157
0.00182491
-0.00112939
0.00435908
-0.00217112
0.00596478
-0.00334356
0.00685279
-0.0045647
0.00719675
-0.00578091
0.00711023
-0.00695314
0.00664883
-0.00804584
0.00582624
-0.00901843
0.00463514
-0.00981882
0.00306745
-0.0103787
0.00113348
-0.0106123
-0.00111808
-0.0104212
-0.00357696
-0.00970965
-0.00604529
-0.00841739
-0.00821414
-0.00657461
-0.00966104
-0.00437119
-0.00990413
-0.00220129
-0.00856568
-0.000597177
-0.00566521
-0.00186928
-0.000340336
0.00216525
-0.00111793
0.00513667
-0.00214729
0.00699415
-0.00330119
0.0080067
-0.00449972
0.00839528
-0.00569562
0.00830614
-0.00685981
0.00781302
-0.00796908
0.00693551
-0.00899605
0.00566211
-0.00990056
0.00397196
-0.010622
0.00185497
-0.0110735
-0.000666626
-0.0111406
-0.00350991
-0.0106886
-0.00649727
-0.00959165
-0.00931108
-0.00779421
-0.0114585
-0.00541373
-0.0122846
-0.00285477
-0.0111246
-0.000813532
-0.00770645
-0.00268281
-0.000327049
0.0024923
-0.00107146
0.00588108
-0.00204815
0.00797085
-0.00312953
0.00908808
-0.00423958
0.00950533
-0.00533964
0.0094062
-0.00641318
0.00888655
-0.00745276
0.00797509
-0.00844924
0.00665858
-0.00938194
0.00490467
-0.010209
0.00268206
-0.0108558
-1.98428e-05
-0.0112092
-0.00315653
-0.011109
-0.00659746
-0.0103667
-0.0100534
-0.00881929
-0.0130058
-0.00645393
-0.01465
-0.0036032
-0.0139754
-0.00109218
-0.0102175
-0.00377499
-0.00031326
0.00280556
-0.00100976
0.00657758
-0.00189887
0.00885996
-0.00285225
0.0100415
-0.00380076
0.0104538
-0.00471793
0.0103234
-0.00560296
0.00977159
-0.00646727
0.00883939
-0.00732374
0.00751505
-0.0081771
0.00575804
-0.00901317
0.00351813
-0.00978695
0.000753939
-0.0104026
-0.00254087
-0.0107019
-0.0062982
-0.010454
-0.0103013
-0.00938825
-0.0140716
-0.00731347
-0.0167247
-0.00438089
-0.016908
-0.00143626
-0.0131621
-0.00521124
-0.000315819
0.00312138
-0.000969314
0.00723108
-0.00174681
0.00963747
-0.00251851
0.0108132
-0.00322864
0.011164
-0.00386969
0.0109644
-0.00446126
0.0103632
-0.00503623
0.00941437
-0.00563139
0.00811021
-0.00627933
0.00640597
-0.00699919
0.00423799
-0.00778366
0.00153841
-0.00857828
-0.00174624
-0.00925485
-0.00562163
-0.00957988
-0.00997629
-0.00920545
-0.014446
-0.00774645
-0.0181837
-0.00506356
-0.0195909
-0.00183512
-0.0163905
-0.00704636
-0.00036392
0.0034853
-0.00100863
0.00787579
-0.00166367
0.0102925
-0.00220075
0.0113502
-0.00259164
0.0115549
-0.00285977
0.0112325
-0.00305195
0.0105553
-0.003225
0.00958741
-0.00343911
0.00832433
-0.00375311
0.00671998
-0.00421854
0.00470343
-0.00486974
0.00218961
-0.00570564
-0.000910337
-0.0066579
-0.00466938
-0.00754026
-0.00909392
-0.0079899
-0.0139963
-0.00746309
-0.0187105
-0.0054594
-0.0215945
-0.00225027
-0.0195997
-0.00929663
-0.000505869
0.00399117
-0.00121187
0.0085818
-0.00173811
0.0108187
-0.00197513
0.0115873
-0.0019512
0.0115309
-0.00173997
0.0110213
-0.00142438
0.0102397
-0.00108713
0.00925016
-0.000809428
0.00804663
-0.000671324
0.00658187
-0.00075077
0.00478288
-0.0011194
0.00255824
-0.0018311
-0.000198639
-0.00289512
-0.00360536
-0.0042193
-0.00776974
-0.00550943
-0.0127062
-0.00615634
-0.0180636
-0.00530543
-0.0224454
-0.00259255
-0.0223125
-0.0118892
-0.000811325
0.00480249
-0.00167553
0.00944601
-0.0020304
0.0111736
-0.00184606
0.0114029
-0.00126427
0.0109491
-0.000435982
0.010193
0.000510907
0.00929286
0.00146803
0.00829305
0.00233799
0.00717668
0.003027
0.00589286
0.00343978
0.00437009
0.00347751
0.00252051
0.00304051
0.00023836
0.002043
-0.00260785
0.000457685
-0.00618442
-0.00157006
-0.0106785
-0.00350727
-0.0161264
-0.00425832
-0.0216944
-0.00268865
-0.0238822
-0.0145778
-0.00134789
0.00615038
-0.00241536
0.0105135
-0.00237824
0.0111365
-0.00148426
0.010509
-9.00855e-05
0.00955497
0.00155273
0.00855021
0.00327469
0.0075709
0.00495222
0.00661552
0.00648397
0.00564492
0.00777476
0.00460207
0.0087245
0.00342033
0.00922096
0.00202405
0.00913513
0.000324193
0.00832359
-0.0017963
0.00664735
-0.00450818
0.00405731
-0.00808843
0.000849123
-0.0129182
-0.00188081
-0.0189645
-0.00225454
-0.0235085
-0.0168324
-0.00213513
0.00828551
-0.00291993
0.0112983
-0.0016825
0.00989904
0.000542482
0.00828397
0.00312624
0.0069712
0.00577777
0.00589869
0.00834357
0.0050051
0.0107267
0.00423242
0.0128525
0.00351913
0.0146477
0.00280684
0.0160267
0.00204138
0.0168826
0.00116812
0.0170788
0.000128015
0.0164438
-0.00116137
0.0147627
-0.00282709
0.0118014
-0.00512707
0.00746866
-0.0085855
0.0024513
-0.0139471
-0.000882047
-0.0201751
-0.0177144
-0.00248831
0.0107738
-1.29474e-05
0.00882291
0.0041778
0.0057083
0.0083291
0.00413267
0.0121256
0.00317468
0.0155358
0.00248846
0.0185601
0.00198083
0.0212035
0.00158903
0.0234622
0.00126046
0.025313
0.000956025
0.0267088
0.000645561
0.0275724
0.000304544
0.0277913
-9.09283e-05
0.0272064
-0.000576418
0.0255808
-0.00120153
0.0225533
-0.00209957
0.0176222
-0.00365439
0.0104034
-0.00672836
0.00247628
-0.012248
-0.0152381
0.0107738
0.0195967
0.025305
0.0294377
0.0326124
0.0351008
0.0370817
0.0386707
0.0399312
0.0408872
0.0415327
0.0418373
0.0417464
0.04117
0.0399684
0.0378688
0.0342145
0.0274861
0.0152381
)
;

boundaryField
{
    movingWall
    {
        type            calculated;
        value           uniform 0;
    }
    fixedWalls
    {
        type            calculated;
        value           uniform 0;
    }
    frontAndBack
    {
        type            empty;
    }
}


// ************************************************************************* //
