/*--------------------------------*- C++ -*----------------------------------*\
  =========                 |
  \\      /  F ield         | OpenFOAM: The Open Source CFD Toolbox
   \\    /   O peration     | Website:  https://openfoam.org
    \\  /    A nd           | Version:  13
     \\/     M anipulation  |
\*---------------------------------------------------------------------------*/
FoamFile
{
    format      ascii;
    class       surfaceScalarField;
    location    "48";
    object      phi_0;
}
// * * * * * * * * * * * * * * * * * * * * * * * * * * * * * * * * * * * * * //

dimensions      [0 3 -1 0 0 0 0];

internalField   nonuniform List<scalar> 
760
(
4.67544e-06
-4.67475e-06
-3.88773e-05
4.35526e-05
-0.000131804
9.29265e-05
-0.000258126
0.000126322
-0.000401867
0.000143741
-0.000549597
0.000147729
-0.000689393
0.000139795
-0.000809459
0.000120067
-0.000897569
8.811e-05
-0.00094177
4.42017e-05
-0.000932318
-9.45048e-06
-0.00086447
-6.78488e-05
-0.000741304
-0.000123167
-0.00057562
-0.000165684
-0.000389738
-0.000185881
-0.000212415
-0.000177323
-7.28603e-05
-0.000139555
7.16657e-06
-8.00262e-05
2.28074e-05
-1.56398e-05
2.28069e-05
-4.74017e-05
4.27266e-05
-0.000210376
0.000206527
-0.000475398
0.000357948
-0.000809745
0.000460666
-0.00117897
0.000512968
-0.00155139
0.000520144
-0.00189735
0.000485756
-0.00218781
0.000410528
-0.00239424
0.000294539
-0.00249067
0.00014064
-0.00245781
-4.23152e-05
-0.00228813
-0.000237525
-0.00199097
-0.00042033
-0.00159545
-0.000561206
-0.00114971
-0.000631622
-0.000714783
-0.000612248
-0.000352867
-0.00050147
-0.000111406
-0.000321486
-5.73992e-06
-0.000121307
1.70665e-05
-0.000112385
0.000155111
-0.000407386
0.000501526
-0.000838649
0.00078921
-0.00135683
0.000978845
-0.00191473
0.00107087
-0.00246864
0.00107405
-0.00297704
0.000994154
-0.00339941
0.000832902
-0.00369681
0.000591941
-0.00383478
0.000278614
-0.00378832
-8.87809e-05
-0.0035479
-0.000477945
-0.00312538
-0.000842857
-0.00255787
-0.00112871
-0.00190768
-0.00128181
-0.00125594
-0.00126398
-0.000688709
-0.0010687
-0.000276665
-0.00073353
-5.33318e-05
-0.000344641
-3.62647e-05
-0.000174245
0.000329356
-0.000596756
0.000924038
-0.00118497
0.00137743
-0.00187051
0.00166438
-0.002595
0.00179536
-0.00330648
0.00178554
-0.00395613
0.00164381
-0.00449647
0.00137324
-0.00488188
0.000977351
-0.0050716
0.000468332
-0.00503471
-0.000125672
-0.00475649
-0.000756167
-0.00424526
-0.00135409
-0.0035383
-0.00183567
-0.00270462
-0.00211549
-0.00184107
-0.00212753
-0.00105865
-0.00185112
-0.000458504
-0.00133368
-0.000103665
-0.000699479
-0.00013993
-0.000229301
0.000558657
-0.000767033
0.00146177
-0.00149733
0.00210772
-0.00233335
0.0025004
-0.00320704
0.00266906
-0.00406102
0.00263951
-0.00484266
0.00242545
-0.00550092
0.0020315
-0.00598592
0.00146235
-0.00625114
0.000733552
-0.0062578
-0.000119012
-0.00598116
-0.00103281
-0.00541878
-0.00191646
-0.00459975
-0.0026547
-0.00359257
-0.00312267
-0.00250705
-0.00321305
-0.00148357
-0.0028746
-0.000665273
-0.00215197
-0.000158529
-0.00120622
-0.00029846
-0.000275671
0.000834329
-0.000911479
0.00209758
-0.00176372
0.00295996
-0.00272993
0.00346661
-0.00373462
0.00367375
-0.00471762
0.00362251
-0.00562553
0.00333337
-0.0064066
0.00281257
-0.00700868
0.00206443
-0.00737983
0.0011047
-0.00747144
-2.74075e-05
-0.00724399
-0.00126026
-0.00667685
-0.0024836
-0.00578133
-0.00355022
-0.00461593
-0.00428807
-0.00329765
-0.00453133
-0.00199894
-0.0041733
-0.000918585
-0.00323233
-0.000225458
-0.00189935
-0.000523919
-0.00031143
0.00114576
-0.00102379
0.00280994
-0.00197238
0.00390855
-0.003043
0.00453723
-0.00415544
0.00478619
-0.00524938
0.00471645
-0.00627348
0.00435746
-0.00717813
0.00371722
-0.00791131
0.00279761
-0.00841701
0.0016104
-0.00863627
0.000191857
-0.0085121
-0.00138442
-0.00799918
-0.00299652
-0.00708084
-0.00446856
-0.00579229
-0.00557662
-0.00424529
-0.00607833
-0.00264035
-0.00577825
-0.00124389
-0.00462879
-0.000313892
-0.00282934
-0.000837811
-0.000334658
0.00148042
-0.00109785
0.00357313
-0.00211136
0.00492207
-0.00325339
0.00567926
-0.0044417
0.0059745
-0.00561824
0.00589298
-0.00673648
0.00547571
-0.00775213
0.00473287
-0.00861665
0.00366213
-0.00927321
0.00226696
-0.00965515
0.000573802
-0.00968837
-0.00135121
-0.00929983
-0.00338507
-0.00843572
-0.00533267
-0.00709164
-0.0069207
-0.00535292
-0.00781705
-0.00343156
-0.00769961
-0.00166542
-0.00639494
-0.000434166
-0.0040606
-0.00127198
-0.000344108
0.00182452
-0.00112923
0.00435825
-0.00217083
0.00596366
-0.00334313
0.00685155
-0.00456413
0.0071955
-0.00578022
0.00710908
-0.00695236
0.00664785
-0.00804498
0.00582549
-0.00901753
0.00463468
-0.00981789
0.00306732
-0.0103778
0.00113369
-0.0106114
-0.00111756
-0.0104204
-0.00357614
-0.00970882
-0.00604421
-0.00841665
-0.00821287
-0.00657401
-0.00965969
-0.00437077
-0.00990285
-0.00220107
-0.00856463
-0.000597114
-0.00566456
-0.00186909
-0.000340312
0.00216484
-0.00111784
0.00513578
-0.00214713
0.00699295
-0.00330094
0.00800536
-0.00449938
0.00839395
-0.00569521
0.00830492
-0.00685935
0.00781198
-0.00796859
0.00693473
-0.00899554
0.00566163
-0.00990004
0.00397182
-0.0106215
0.00185517
-0.011073
-0.000666104
-0.01114
-0.00350909
-0.010688
-0.0064962
-0.00959111
-0.0093098
-0.00779372
-0.0114571
-0.00541336
-0.0122832
-0.00285454
-0.0111234
-0.000813458
-0.00770564
-0.00268255
-0.000327055
0.00249189
-0.00107146
0.00588018
-0.00204814
0.00796962
-0.00312949
0.00908672
-0.00423953
0.00950398
-0.00533958
0.00940497
-0.00641311
0.00888552
-0.00745271
0.00797433
-0.00844921
0.00665813
-0.00938194
0.00490455
-0.010209
0.00268227
-0.0108558
-1.93336e-05
-0.0112091
-0.00315575
-0.0111089
-0.00659646
-0.0103665
-0.0100522
-0.00881903
-0.0130045
-0.00645367
-0.0146486
-0.00360301
-0.0139741
-0.00109211
-0.0102165
-0.00377466
-0.000313297
0.00280519
-0.00100985
0.00657673
-0.00189902
0.00885879
-0.00285245
0.0100402
-0.00380101
0.0104525
-0.00471823
0.0103222
-0.00560332
0.00977061
-0.00646769
0.00883869
-0.00732421
0.00751466
-0.00817762
0.00575796
-0.00901371
0.00351836
-0.00978748
0.000754434
-0.0104031
-0.00254015
-0.0107022
-0.00629731
-0.0104542
-0.0103003
-0.00938831
-0.0140704
-0.0073134
-0.0167235
-0.00438078
-0.0169067
-0.00143619
-0.0131611
-0.00521085
-0.000315886
0.00312107
-0.000969493
0.00723034
-0.00174712
0.00963642
-0.00251894
0.010812
-0.00322919
0.0111628
-0.00387034
0.0109633
-0.00446201
0.0103623
-0.00503707
0.00941376
-0.00563231
0.0081099
-0.00628031
0.00640596
-0.0070002
0.00423825
-0.00778465
0.00153889
-0.00857921
-0.00174559
-0.00925566
-0.00562086
-0.00958051
-0.00997543
-0.00920585
-0.014445
-0.00774663
-0.0181827
-0.00506358
-0.0195898
-0.00183508
-0.0163896
-0.00704594
-0.000364011
0.00348508
-0.00100888
0.00787521
-0.00166411
0.0102916
-0.00220137
0.0113492
-0.00259243
0.0115538
-0.00286071
0.0112316
-0.00305302
0.0105546
-0.00322617
0.00958691
-0.00344036
0.00832409
-0.0037544
0.00672001
-0.00421985
0.00470369
-0.00487102
0.00219007
-0.00570686
-0.000909752
-0.006659
-0.00466872
-0.00754118
-0.00909324
-0.00799058
-0.0139956
-0.0074635
-0.0187098
-0.00545956
-0.0215937
-0.00225027
-0.0195989
-0.00929621
-0.000505973
0.00399105
-0.00121217
0.0085814
-0.00173863
0.0108181
-0.00197588
0.0115865
-0.00195216
0.0115301
-0.0017411
0.0110206
-0.00142565
0.0102391
-0.00108849
0.00924975
-0.000810845
0.00804644
-0.000672755
0.00658192
-0.00075218
0.00478312
-0.00112076
0.00255865
-0.00183238
-0.000198131
-0.00289629
-0.00360481
-0.00422032
-0.00776921
-0.00551024
-0.0127057
-0.00615689
-0.0180631
-0.0053057
-0.0224449
-0.00259261
-0.022312
-0.0118888
-0.000811424
0.00480248
-0.00167582
0.0094458
-0.00203092
0.0111732
-0.00184683
0.0114024
-0.00126527
0.0109485
-0.000437163
0.0101925
0.00050959
0.00929239
0.00146663
0.00829272
0.00233656
0.00717652
0.00302559
0.00589289
0.00343843
0.00437028
0.00347624
0.00252084
0.00303933
0.000238771
0.00204193
-0.00260741
0.000456743
-0.00618402
-0.00157084
-0.0106781
-0.00350784
-0.0161261
-0.00425864
-0.0216941
-0.00268875
-0.0238819
-0.0145776
-0.00134796
0.00615043
-0.00241559
0.0105134
-0.00237867
0.0111363
-0.00148492
0.0105086
-9.09592e-05
0.00955459
0.00155167
0.00854982
0.0032735
0.00757056
0.00495095
0.00661526
0.00648268
0.00564479
0.0077735
0.00460207
0.00872332
0.00342046
0.00921987
0.00202429
0.00913415
0.00032449
0.00832273
-0.00179599
0.00664661
-0.00450791
0.0040567
-0.00808822
0.000848644
-0.0129181
-0.00188111
-0.0189644
-0.00225466
-0.0235084
-0.0168322
-0.00213514
0.00828558
-0.00292002
0.0112983
-0.00168274
0.00989899
0.000542075
0.00828383
0.00312566
0.006971
0.00577702
0.00589846
0.00834269
0.00500489
0.0107257
0.00423225
0.0128514
0.00351904
0.0146467
0.00280684
0.0160257
0.00204145
0.0168817
0.00116826
0.017078
0.00012819
0.0164432
-0.00116119
0.0147623
-0.00282693
0.011801
-0.00512696
0.00746836
-0.00858545
0.0024511
-0.0139471
-0.000882144
-0.0201751
-0.0177144
-0.00248828
0.0107739
-1.29159e-05
0.00882295
0.00417778
0.0057083
0.00832899
0.00413263
0.0121254
0.00317461
0.0155355
0.00248838
0.0185596
0.00198075
0.0212029
0.00158898
0.0234615
0.00126043
0.0253123
0.000956028
0.0267081
0.000645594
0.0275718
0.000304603
0.0277908
-9.08551e-05
0.027206
-0.000576346
0.0255806
-0.00120148
0.0225531
-0.00209955
0.0176221
-0.00365439
0.0104034
-0.00672837
0.00247623
-0.012248
-0.0152381
0.0107739
0.0195968
0.0253051
0.0294377
0.0326123
0.0351007
0.0370815
0.0386704
0.0399309
0.0408869
0.0415325
0.0418371
0.0417463
0.0411699
0.0399684
0.0378689
0.0342145
0.0274861
0.0152381
)
;

boundaryField
{
    movingWall
    {
        type            calculated;
        value           uniform 0;
    }
    fixedWalls
    {
        type            calculated;
        value           uniform 0;
    }
    frontAndBack
    {
        type            empty;
    }
}


// ************************************************************************* //
