/*--------------------------------*- C++ -*----------------------------------*\
  =========                 |
  \\      /  F ield         | OpenFOAM: The Open Source CFD Toolbox
   \\    /   O peration     | Website:  https://openfoam.org
    \\  /    A nd           | Version:  13
     \\/     M anipulation  |
\*---------------------------------------------------------------------------*/
FoamFile
{
    format      ascii;
    class       volVectorField;
    location    "48";
    object      U;
}
// * * * * * * * * * * * * * * * * * * * * * * * * * * * * * * * * * * * * * //

dimensions      [0 1 -1 0 0 0 0];

internalField   nonuniform List<vector> 
400
(
(0.00018292 -0.000188297 0)
(-0.000138152 2.91205e-05 0)
(-0.00153521 0.000268119 0)
(-0.00379141 0.000419491 0)
(-0.00655738 0.00049953 0)
(-0.00953103 0.00053016 0)
(-0.0124617 0.000521152 0)
(-0.015115 0.000471384 0)
(-0.0172496 0.000374002 0)
(-0.0186176 0.00022355 0)
(-0.0189926 2.32535e-05 0)
(-0.018219 -0.000209421 0)
(-0.0162717 -0.000440349 0)
(-0.0133075 -0.000622751 0)
(-0.00968458 -0.000707831 0)
(-0.00593182 -0.000660583 0)
(-0.0026576 -0.000474932 0)
(-0.000404791 -0.000181654 0)
(0.000542735 0.000137967 0)
(0.000310517 0.000303516 0)
(-4.69135e-05 0.000134112 0)
(-0.00208375 0.00193341 0)
(-0.00644496 0.00376526 0)
(-0.0126064 0.00503185 0)
(-0.0198072 0.00569878 0)
(-0.027375 0.00584275 0)
(-0.0347032 0.00551433 0)
(-0.0412078 0.00471968 0)
(-0.0463071 0.00344886 0)
(-0.0494411 0.0017214 0)
(-0.0501358 -0.000369431 0)
(-0.0481007 -0.00262825 0)
(-0.0433377 -0.00475669 0)
(-0.036228 -0.00639039 0)
(-0.0275594 -0.00717568 0)
(-0.0184621 -0.00687521 0)
(-0.0102293 -0.00547473 0)
(-0.00403285 -0.00325808 0)
(-0.000574351 -0.00085965 0)
(0.00022262 0.000591998 0)
(-0.000353532 0.00171786 0)
(-0.00449545 0.00647494 0)
(-0.011893 0.0106909 0)
(-0.0216417 0.0135419 0)
(-0.0326406 0.0149789 0)
(-0.0439754 0.0151297 0)
(-0.0548055 0.0140836 0)
(-0.0643119 0.0118625 0)
(-0.07169 0.00847986 0)
(-0.0761858 0.00403089 0)
(-0.0771788 -0.00122245 0)
(-0.0742972 -0.00680157 0)
(-0.0675442 -0.0120179 0)
(-0.0574025 -0.0160521 0)
(-0.0448801 -0.0181131 0)
(-0.0314538 -0.0176604 0)
(-0.0188695 -0.0146403 0)
(-0.00879677 -0.00965903 0)
(-0.00241851 -0.00405567 0)
(3.59958e-05 2.83886e-05 0)
(-0.000631539 0.00460191 0)
(-0.00682563 0.0136982 0)
(-0.017136 0.0209598 0)
(-0.0302105 0.025677 0)
(-0.0446056 0.0279151 0)
(-0.0592256 0.0278935 0)
(-0.0730836 0.0257516 0)
(-0.0852189 0.0215354 0)
(-0.0946899 0.0152973 0)
(-0.100613 0.00723454 0)
(-0.102243 -0.00218566 0)
(-0.0990976 -0.0121536 0)
(-0.0910851 -0.0215243 0)
(-0.0786442 -0.0289298 0)
(-0.0628379 -0.0330156 0)
(-0.0453578 -0.0327934 0)
(-0.0283596 -0.0280488 0)
(-0.0140959 -0.0196691 0)
(-0.00443464 -0.00975369 0)
(-0.000124528 -0.0015124 0)
(-0.000871132 0.00867009 0)
(-0.00891004 0.0233748 0)
(-0.0218642 0.0342395 0)
(-0.0379416 0.0409952 0)
(-0.0553779 0.0439956 0)
(-0.0729415 0.0436283 0)
(-0.0895655 0.0401097 0)
(-0.104221 0.0335165 0)
(-0.115892 0.0239367 0)
(-0.123597 0.0116586 0)
(-0.126459 -0.00266254 0)
(-0.123811 -0.0179008 0)
(-0.115347 -0.0324459 0)
(-0.101296 -0.0443195 0)
(-0.0826072 -0.051461 0)
(-0.0610732 -0.0522123 0)
(-0.0392657 -0.0459501 0)
(-0.0201889 -0.0336712 0)
(-0.00668817 -0.0182351 0)
(-0.000271001 -0.00408867 0)
(-0.00106848 0.0137611 0)
(-0.0106664 0.0352013 0)
(-0.0258836 0.0501758 0)
(-0.0445481 0.0591292 0)
(-0.0646277 0.0628781 0)
(-0.0848029 0.0620699 0)
(-0.103985 0.0570363 0)
(-0.121141 0.0478867 0)
(-0.135229 0.0347213 0)
(-0.1452 0.0178717 0)
(-0.150027 -0.0018863 0)
(-0.148797 -0.0231799 0)
(-0.14086 -0.0439755 0)
(-0.126063 -0.0616474 0)
(-0.105041 -0.0732658 0)
(-0.0795118 -0.0761904 0)
(-0.0524113 -0.0689815 0)
(-0.0276594 -0.0524059 0)
(-0.00946053 -0.0300279 0)
(-0.000446377 -0.00785091 0)
(-0.00121588 0.0196811 0)
(-0.0120194 0.0487918 0)
(-0.029015 0.0683177 0)
(-0.049737 0.0796335 0)
(-0.0719559 0.084173 0)
(-0.0943155 0.082937 0)
(-0.11576 0.0764142 0)
(-0.135309 0.0647476 0)
(-0.151955 0.0480107 0)
(-0.164617 0.0265016 0)
(-0.172131 0.00100779 0)
(-0.173306 -0.0269754 0)
(-0.167064 -0.0550908 0)
(-0.1527 -0.0800845 0)
(-0.130293 -0.0980157 0)
(-0.101208 -0.104893 0)
(-0.0685371 -0.0978722 0)
(-0.0371686 -0.0768893 0)
(-0.013113 -0.0459833 0)
(-0.00070218 -0.0131288 0)
(-0.00130461 0.0261971 0)
(-0.0128969 0.0636721 0)
(-0.0310853 0.0880966 0)
(-0.0532033 0.101928 0)
(-0.0768991 0.107345 0)
(-0.100828 0.10579 0)
(-0.124017 0.0979549 0)
(-0.145598 0.0840203 0)
(-0.164663 0.0639904 0)
(-0.18017 0.0380402 0)
(-0.190877 0.00683238 0)
(-0.195354 -0.0281856 0)
(-0.192071 -0.064506 0)
(-0.179664 -0.0983639 0)
(-0.157402 -0.124764 0)
(-0.125905 -0.138019 0)
(-0.0879835 -0.133147 0)
(-0.0492904 -0.108271 0)
(-0.0180403 -0.0672725 0)
(-0.0011017 -0.0204563 0)
(-0.00132995 0.0330416 0)
(-0.0132523 0.0792894 0)
(-0.0319639 0.108826 0)
(-0.0546822 0.125274 0)
(-0.0789996 0.131652 0)
(-0.103623 0.129931 0)
(-0.127709 0.12106 0)
(-0.150562 0.105271 0)
(-0.171452 0.0824704 0)
(-0.189474 0.0526267 0)
(-0.203431 0.0161389 0)
(-0.211773 -0.0257925 0)
(-0.212612 -0.0707575 0)
(-0.203911 -0.114734 0)
(-0.183942 -0.151814 0)
(-0.152129 -0.174435 0)
(-0.110323 -0.174713 0)
(-0.0643211 -0.147554 0)
(-0.024641 -0.0953072 0)
(-0.00172817 -0.0305846 0)
(-0.00129863 0.0399352 0)
(-0.0131027 0.0950452 0)
(-0.0316304 0.129722 0)
(-0.0540444 0.148767 0)
(-0.0779333 0.156113 0)
(-0.10209 0.154339 0)
(-0.125842 0.144721 0)
(-0.148724 0.127578 0)
(-0.170271 0.102714 0)
(-0.189839 0.0698412 0)
(-0.206442 0.0289816 0)
(-0.218614 -0.0191102 0)
(-0.224321 -0.0724227 0)
(-0.221005 -0.127073 0)
(-0.205899 -0.17664 0)
(-0.17686 -0.211838 0)
(-0.133952 -0.221336 0)
(-0.0820022 -0.195119 0)
(-0.0332613 -0.131549 0)
(-0.00269554 -0.0444893 0)
(-0.0012387 0.0466355 0)
(-0.0125812 0.110366 0)
(-0.030264 0.14996 0)
(-0.0514202 0.171368 0)
(-0.0736718 0.179508 0)
(-0.0959375 0.177658 0)
(-0.11776 0.167492 0)
(-0.138964 0.149478 0)
(-0.159427 0.123349 0)
(-0.178893 0.0885634 0)
(-0.196767 0.0447052 0)
(-0.211916 -0.00806993 0)
(-0.22248 -0.0684693 0)
(-0.225703 -0.133228 0)
(-0.217989 -0.196077 0)
(-0.195496 -0.246637 0)
(-0.155757 -0.270136 0)
(-0.101146 -0.250063 0)
(-0.0440679 -0.177142 0)
(-0.00415823 -0.063359 0)
(-0.0012129 0.0530199 0)
(-0.0120003 0.124816 0)
(-0.0283428 0.168763 0)
(-0.0473257 0.191968 0)
(-0.0666393 0.200437 0)
(-0.0853979 0.198245 0)
(-0.103429 0.18755 0)
(-0.120904 0.169031 0)
(-0.138111 0.142418 0)
(-0.155266 0.10696 0)
(-0.172318 0.0618189 0)
(-0.188719 0.00648225 0)
(-0.203117 -0.0586906 0)
(-0.213014 -0.131561 0)
(-0.214496 -0.206861 0)
(-0.202303 -0.274237 0)
(-0.171074 -0.316361 0)
(-0.119253 -0.309466 0)
(-0.0568018 -0.232305 0)
(-0.00631354 -0.0885341 0)
(-0.00134016 0.0592145 0)
(-0.0119359 0.138256 0)
(-0.0267438 0.185516 0)
(-0.0427556 0.209462 0)
(-0.0577982 0.217392 0)
(-0.0713255 0.214286 0)
(-0.0835672 0.202842 0)
(-0.0951128 0.184006 0)
(-0.1067 0.157568 0)
(-0.119055 0.122651 0)
(-0.132732 0.0780797 0)
(-0.147905 0.0227225 0)
(-0.164033 -0.0440537 0)
(-0.179397 -0.121599 0)
(-0.190476 -0.206472 0)
(-0.191367 -0.289837 0)
(-0.174131 -0.353699 0)
(-0.132329 -0.367879 0)
(-0.0703963 -0.29544 0)
(-0.00938282 -0.121326 0)
(-0.00183615 0.0657921 0)
(-0.0133459 0.151043 0)
(-0.0268272 0.199873 0)
(-0.0391847 0.222808 0)
(-0.048566 0.228817 0)
(-0.0550465 0.223887 0)
(-0.0594524 0.211247 0)
(-0.0628798 0.192101 0)
(-0.0665271 0.16633 0)
(-0.0716035 0.13301 0)
(-0.0792353 0.0907583 0)
(-0.0903219 0.0379837 0)
(-0.105274 -0.0268205 0)
(-0.123543 -0.104523 0)
(-0.1428 -0.194058 0)
(-0.157692 -0.289614 0)
(-0.158854 -0.375266 0)
(-0.135036 -0.417384 0)
(-0.0824994 -0.362103 0)
(-0.0135189 -0.162554 0)
(-0.00307343 0.0740655 0)
(-0.0177177 0.164226 0)
(-0.030419 0.211753 0)
(-0.0382996 0.230938 0)
(-0.0403145 0.233049 0)
(-0.0376688 0.225085 0)
(-0.032067 0.210657 0)
(-0.0252096 0.191106 0)
(-0.0187425 0.166358 0)
(-0.0142754 0.135481 0)
(-0.013388 0.0970096 0)
(-0.017588 0.0491172 0)
(-0.0281772 -0.0102582 0)
(-0.0459205 -0.083185 0)
(-0.070283 -0.170976 0)
(-0.0977911 -0.271875 0)
(-0.11958 -0.375056 0)
(-0.121029 -0.44849 0)
(-0.0889701 -0.424339 0)
(-0.0184958 -0.21174 0)
(-0.00556976 0.0865845 0)
(-0.0270569 0.179641 0)
(-0.0392567 0.220981 0)
(-0.0407721 0.232306 0)
(-0.0326073 0.227935 0)
(-0.0179483 0.215578 0)
(0.000294288 0.198816 0)
(0.019756 0.178843 0)
(0.0384092 0.155487 0)
(0.0543734 0.127786 0)
(0.0657853 0.0942837 0)
(0.0707259 0.0531433 0)
(0.0672129 0.00214843 0)
(0.0533246 -0.0613696 0)
(0.0276633 -0.140459 0)
(-0.0091567 -0.237485 0)
(-0.0510812 -0.349161 0)
(-0.0830332 -0.451589 0)
(-0.0833877 -0.471158 0)
(-0.0231112 -0.266753 0)
(-0.00989151 0.108708 0)
(-0.0429244 0.19962 0)
(-0.0520766 0.225831 0)
(-0.0415303 0.223412 0)
(-0.0174995 0.209718 0)
(0.0137397 0.191965 0)
(0.0480057 0.172846 0)
(0.0824639 0.152928 0)
(0.114948 0.131704 0)
(0.143556 0.108114 0)
(0.166386 0.080771 0)
(0.181364 0.0480163 0)
(0.186122 0.00784551 0)
(0.177957 -0.0423426 0)
(0.153927 -0.106232 0)
(0.111655 -0.189125 0)
(0.0524492 -0.296002 0)
(-0.0124238 -0.417747 0)
(-0.0567042 -0.488965 0)
(-0.0246494 -0.324055 0)
(-0.0178129 0.151661 0)
(-0.0612764 0.223636 0)
(-0.0521984 0.217702 0)
(-0.0142189 0.195017 0)
(0.0356346 0.171166 0)
(0.0889068 0.149193 0)
(0.141606 0.129492 0)
(0.19144 0.111472 0)
(0.23681 0.0940982 0)
(0.276313 0.0761906 0)
(0.30842 0.056519 0)
(0.331262 0.0337632 0)
(0.342463 0.006409 0)
(0.33903 -0.027525 0)
(0.31716 -0.071199 0)
(0.272273 -0.130553 0)
(0.200174 -0.216498 0)
(0.103027 -0.338356 0)
(0.00438301 -0.456789 0)
(-0.0159571 -0.369331 0)
(-0.0242266 0.208259 0)
(-0.0379194 0.230351 0)
(0.037278 0.17654 0)
(0.125087 0.13688 0)
(0.2059 0.109102 0)
(0.278126 0.0882659 0)
(0.342425 0.0721702 0)
(0.399077 0.0592267 0)
(0.448126 0.0480553 0)
(0.489338 0.037525 0)
(0.522036 0.0266986 0)
(0.544988 0.0147303 0)
(0.556315 0.000748404 0)
(0.553368 -0.0163179 0)
(0.532337 -0.0383079 0)
(0.487761 -0.069163 0)
(0.411153 -0.119104 0)
(0.290896 -0.209351 0)
(0.133139 -0.338288 0)
(0.0387782 -0.340367 0)
(0.241884 0.10913 0)
(0.313448 0.0971136 0)
(0.44431 0.0569658 0)
(0.549625 0.035108 0)
(0.624072 0.0237394 0)
(0.679637 0.01671 0)
(0.723536 0.0119797 0)
(0.758862 0.00869289 0)
(0.787161 0.00625282 0)
(0.80923 0.00422878 0)
(0.825248 0.00232669 0)
(0.834845 0.000338611 0)
(0.837161 -0.00191165 0)
(0.830779 -0.00459258 0)
(0.813399 -0.00802954 0)
(0.781133 -0.0128842 0)
(0.725688 -0.0212275 0)
(0.629861 -0.0380906 0)
(0.459268 -0.0855478 0)
(0.304894 -0.125697 0)
)
;

boundaryField
{
    movingWall
    {
        type            fixedValue;
        value           uniform (1 0 0);
    }
    fixedWalls
    {
        type            fixedValue;
        value           uniform (0 0 0);
    }
    frontAndBack
    {
        type            empty;
    }
}


// ************************************************************************* //
