/*--------------------------------*- C++ -*----------------------------------*\
  =========                 |
  \\      /  F ield         | OpenFOAM: The Open Source CFD Toolbox
   \\    /   O peration     | Website:  https://openfoam.org
    \\  /    A nd           | Version:  13
     \\/     M anipulation  |
\*---------------------------------------------------------------------------*/
FoamFile
{
    format      ascii;
    class       volVectorField;
    location    "48";
    object      U_0;
}
// * * * * * * * * * * * * * * * * * * * * * * * * * * * * * * * * * * * * * //

dimensions      [0 1 -1 0 0 0 0];

internalField   nonuniform List<vector> 
400
(
(0.000183026 -0.000188012 0)
(-0.000137034 2.8959e-05 0)
(-0.00153499 0.000268016 0)
(-0.00379094 0.000419364 0)
(-0.00655641 0.000499424 0)
(-0.00952947 0.000530062 0)
(-0.0124595 0.000521053 0)
(-0.0151123 0.000471288 0)
(-0.0172464 0.000373916 0)
(-0.0186141 0.000223484 0)
(-0.0189891 2.32209e-05 0)
(-0.0182157 -0.000209409 0)
(-0.016269 -0.000440289 0)
(-0.0133055 -0.000622659 0)
(-0.00968342 -0.000707737 0)
(-0.0059314 -0.000660522 0)
(-0.0026577 -0.000474928 0)
(-0.000405131 -0.000181713 0)
(0.000542441 0.000137864 0)
(0.000310425 0.000303422 0)
(-4.72245e-05 0.000135454 0)
(-0.00208156 0.00193492 0)
(-0.00644262 0.00376511 0)
(-0.012603 0.00503112 0)
(-0.0198025 0.0056978 0)
(-0.0273689 0.00584166 0)
(-0.0346957 0.00551325 0)
(-0.041199 0.00471875 0)
(-0.0462974 0.00344822 0)
(-0.0494311 0.00172118 0)
(-0.0501259 -0.000369154 0)
(-0.0480916 -0.00262747 0)
(-0.04333 -0.00475548 0)
(-0.036222 -0.00638889 0)
(-0.0275553 -0.00717415 0)
(-0.0184598 -0.00687394 0)
(-0.0102284 -0.00547395 0)
(-0.00403281 -0.00325783 0)
(-0.000574575 -0.000859808 0)
(0.000222505 0.000591691 0)
(-0.000353661 0.0017178 0)
(-0.00449392 0.00647481 0)
(-0.01189 0.0106892 0)
(-0.0216365 0.0135394 0)
(-0.0326331 0.014976 0)
(-0.0439656 0.0151267 0)
(-0.0547935 0.0140808 0)
(-0.064298 0.0118602 0)
(-0.0716749 0.00847839 0)
(-0.0761702 0.00403049 0)
(-0.0771634 -0.00122161 0)
(-0.074283 -0.00679951 0)
(-0.067532 -0.0120148 0)
(-0.0573927 -0.0160484 0)
(-0.044873 -0.0181093 0)
(-0.0314494 -0.0176572 0)
(-0.0188673 -0.0146381 0)
(-0.00879604 -0.00965801 0)
(-0.00241849 -0.00405562 0)
(3.58978e-05 2.79604e-05 0)
(-0.000631601 0.00460101 0)
(-0.00682375 0.0136962 0)
(-0.0171318 0.0209558 0)
(-0.0302033 0.0256719 0)
(-0.0445952 0.0279094 0)
(-0.0592123 0.0278879 0)
(-0.0730674 0.0257465 0)
(-0.0852005 0.0215314 0)
(-0.0946701 0.0152948 0)
(-0.100592 0.00723399 0)
(-0.102223 -0.00218403 0)
(-0.0990789 -0.0121499 0)
(-0.0910687 -0.0215187 0)
(-0.0786307 -0.0289232 0)
(-0.0628278 -0.0330088 0)
(-0.045351 -0.0327873 0)
(-0.0283558 -0.0280444 0)
(-0.0140942 -0.0196667 0)
(-0.00443427 -0.00975301 0)
(-0.000124607 -0.00151279 0)
(-0.000871093 0.00866812 0)
(-0.00890768 0.0233703 0)
(-0.0218589 0.0342324 0)
(-0.0379327 0.0409867 0)
(-0.0553653 0.0439866 0)
(-0.0729254 0.0436194 0)
(-0.0895462 0.0401019 0)
(-0.104199 0.0335104 0)
(-0.115869 0.0239329 0)
(-0.123573 0.0116579 0)
(-0.126435 -0.00266005 0)
(-0.123789 -0.0178951 0)
(-0.115327 -0.0324376 0)
(-0.101279 -0.0443095 0)
(-0.082594 -0.0514506 0)
(-0.0610639 -0.0522028 0)
(-0.0392601 -0.0459427 0)
(-0.0201863 -0.0336666 0)
(-0.0066874 -0.0182333 0)
(-0.000271062 -0.00408884 0)
(-0.00106836 0.0137578 0)
(-0.0106637 0.035194 0)
(-0.0258776 0.0501651 0)
(-0.0445382 0.0591168 0)
(-0.0646138 0.0628652 0)
(-0.0847852 0.0620576 0)
(-0.103964 0.0570254 0)
(-0.121117 0.0478783 0)
(-0.135204 0.0347162 0)
(-0.145174 0.0178706 0)
(-0.150001 -0.00188306 0)
(-0.148772 -0.0231725 0)
(-0.140838 -0.0439645 0)
(-0.126044 -0.061634 0)
(-0.105025 -0.0732514 0)
(-0.0795002 -0.0761769 0)
(-0.0524039 -0.0689704 0)
(-0.0276557 -0.0523986 0)
(-0.00945934 -0.0300245 0)
(-0.00044642 -0.00785066 0)
(-0.00121572 0.0196763 0)
(-0.0120167 0.0487814 0)
(-0.029009 0.0683032 0)
(-0.049727 0.079617 0)
(-0.0719419 0.0841561 0)
(-0.0942978 0.082921 0)
(-0.115739 0.0764003 0)
(-0.135286 0.064737 0)
(-0.15193 0.0480042 0)
(-0.164591 0.0265001 0)
(-0.172105 0.00101152 0)
(-0.173281 -0.0269665 0)
(-0.16704 -0.0550774 0)
(-0.152679 -0.0800677 0)
(-0.130275 -0.0979973 0)
(-0.101194 -0.104875 0)
(-0.068528 -0.0978569 0)
(-0.0371638 -0.0768785 0)
(-0.0131113 -0.0459777 0)
(-0.000702202 -0.0131279 0)
(-0.00130446 0.026191 0)
(-0.0128945 0.0636588 0)
(-0.0310799 0.0880783 0)
(-0.0531943 0.101908 0)
(-0.0768864 0.107324 0)
(-0.100812 0.10577 0)
(-0.123998 0.0979381 0)
(-0.145577 0.0840074 0)
(-0.164641 0.0639826 0)
(-0.180146 0.038038 0)
(-0.190853 0.00683628 0)
(-0.19533 -0.0281757 0)
(-0.192049 -0.0644907 0)
(-0.179644 -0.0983444 0)
(-0.157384 -0.124742 0)
(-0.12589 -0.137997 0)
(-0.0879733 -0.133127 0)
(-0.0492847 -0.108256 0)
(-0.0180382 -0.0672643 0)
(-0.00110169 -0.0204545 0)
(-0.00132985 0.0330343 0)
(-0.0132504 0.0792735 0)
(-0.0319597 0.108804 0)
(-0.0546752 0.12525 0)
(-0.0789898 0.131628 0)
(-0.103611 0.129908 0)
(-0.127695 0.121041 0)
(-0.150546 0.105257 0)
(-0.171434 0.0824614 0)
(-0.189455 0.052624 0)
(-0.203413 0.0161428 0)
(-0.211754 -0.0257821 0)
(-0.212593 -0.0707413 0)
(-0.203894 -0.114713 0)
(-0.183926 -0.151789 0)
(-0.152115 -0.174409 0)
(-0.110313 -0.174689 0)
(-0.0643148 -0.147535 0)
(-0.0246384 -0.0952959 0)
(-0.0017281 -0.0305816 0)
(-0.00129862 0.039927 0)
(-0.0131018 0.0950276 0)
(-0.0316281 0.129698 0)
(-0.0540403 0.148741 0)
(-0.0779275 0.156087 0)
(-0.102083 0.154315 0)
(-0.125834 0.144701 0)
(-0.148715 0.127562 0)
(-0.170261 0.102704 0)
(-0.189829 0.0698381 0)
(-0.206432 0.0289853 0)
(-0.218603 -0.0190998 0)
(-0.22431 -0.0724063 0)
(-0.220994 -0.127052 0)
(-0.205888 -0.176614 0)
(-0.176849 -0.211811 0)
(-0.133943 -0.221309 0)
(-0.081996 -0.195097 0)
(-0.0332584 -0.131534 0)
(-0.00269537 -0.0444849 0)
(-0.00123879 0.0466271 0)
(-0.0125813 0.110347 0)
(-0.030264 0.149935 0)
(-0.0514198 0.171341 0)
(-0.073671 0.179481 0)
(-0.0959364 0.177632 0)
(-0.117759 0.167471 0)
(-0.138963 0.149462 0)
(-0.159427 0.12334 0)
(-0.178893 0.0885604 0)
(-0.196767 0.044709 0)
(-0.211916 -0.00805976 0)
(-0.22248 -0.0684534 0)
(-0.225702 -0.133207 0)
(-0.217986 -0.196052 0)
(-0.195491 -0.24661 0)
(-0.155751 -0.270108 0)
(-0.101141 -0.250038 0)
(-0.0440651 -0.177125 0)
(-0.00415794 -0.0633531 0)
(-0.00121309 0.053012 0)
(-0.0120016 0.124798 0)
(-0.0283452 0.168738 0)
(-0.0473293 0.19194 0)
(-0.0666439 0.20041 0)
(-0.0854035 0.198221 0)
(-0.103436 0.18753 0)
(-0.120912 0.169016 0)
(-0.13812 0.14241 0)
(-0.155277 0.106958 0)
(-0.172329 0.0618231 0)
(-0.18873 0.00649224 0)
(-0.203127 -0.0586756 0)
(-0.213022 -0.131542 0)
(-0.214502 -0.206838 0)
(-0.202305 -0.274212 0)
(-0.171074 -0.316334 0)
(-0.11925 -0.309441 0)
(-0.0567996 -0.232286 0)
(-0.00631312 -0.0885268 0)
(-0.00134044 0.0592076 0)
(-0.0119383 0.13824 0)
(-0.0267486 0.185494 0)
(-0.042763 0.209437 0)
(-0.0578081 0.217366 0)
(-0.0713376 0.214263 0)
(-0.0835814 0.202823 0)
(-0.095129 0.183992 0)
(-0.106718 0.157561 0)
(-0.119074 0.12265 0)
(-0.132752 0.0780846 0)
(-0.147925 0.0227323 0)
(-0.164053 -0.0440399 0)
(-0.179415 -0.121583 0)
(-0.190491 -0.206453 0)
(-0.191377 -0.289815 0)
(-0.174136 -0.353675 0)
(-0.13233 -0.367856 0)
(-0.0703954 -0.295421 0)
(-0.00938231 -0.121318 0)
(-0.0018365 0.0657868 0)
(-0.0133491 0.15103 0)
(-0.026834 0.199854 0)
(-0.0391953 0.222786 0)
(-0.0485803 0.228794 0)
(-0.055064 0.223867 0)
(-0.0594728 0.211231 0)
(-0.0629024 0.19209 0)
(-0.0665515 0.166324 0)
(-0.0716291 0.13301 0)
(-0.0792614 0.0907638 0)
(-0.0903478 0.0379934 0)
(-0.105299 -0.0268079 0)
(-0.123566 -0.104508 0)
(-0.142821 -0.194042 0)
(-0.157709 -0.289597 0)
(-0.158864 -0.375248 0)
(-0.135042 -0.417364 0)
(-0.0825004 -0.362085 0)
(-0.0135184 -0.162545 0)
(-0.00307379 0.0740623 0)
(-0.0177214 0.164216 0)
(-0.030427 0.211738 0)
(-0.0383123 0.23092 0)
(-0.0403317 0.23303 0)
(-0.03769 0.225068 0)
(-0.0320913 0.210644 0)
(-0.0252362 0.191097 0)
(-0.0187706 0.166354 0)
(-0.0143041 0.135482 0)
(-0.0134165 0.0970151 0)
(-0.0176158 0.0491263 0)
(-0.0282036 -0.010247 0)
(-0.0459451 -0.0831728 0)
(-0.0703052 -0.170963 0)
(-0.0978098 -0.271863 0)
(-0.119594 -0.375043 0)
(-0.121037 -0.448476 0)
(-0.0889729 -0.424326 0)
(-0.0184955 -0.211732 0)
(-0.00557005 0.0865834 0)
(-0.0270605 0.179635 0)
(-0.0392647 0.22097 0)
(-0.0407852 0.232293 0)
(-0.0326252 0.227921 0)
(-0.0179704 0.215565 0)
(0.00026892 0.198805 0)
(0.0197284 0.178835 0)
(0.0383806 0.155484 0)
(0.0543448 0.127787 0)
(0.0657576 0.0942884 0)
(0.0706997 0.053151 0)
(0.0671884 0.00215797 0)
(0.0533022 -0.0613595 0)
(0.0276432 -0.140449 0)
(-0.00917411 -0.237476 0)
(-0.051095 -0.349154 0)
(-0.0830422 -0.451581 0)
(-0.0833917 -0.471149 0)
(-0.0231114 -0.266746 0)
(-0.0098916 0.108709 0)
(-0.042927 0.199617 0)
(-0.0520829 0.225825 0)
(-0.0415412 0.223404 0)
(-0.017515 0.209709 0)
(0.0137201 0.191956 0)
(0.0479829 0.172838 0)
(0.082439 0.152922 0)
(0.114922 0.131701 0)
(0.14353 0.108114 0)
(0.166362 0.0807743 0)
(0.181341 0.0480221 0)
(0.186101 0.00785282 0)
(0.177939 -0.0423349 0)
(0.153911 -0.106225 0)
(0.111642 -0.189119 0)
(0.0524381 -0.295998 0)
(-0.0124318 -0.417744 0)
(-0.0567084 -0.488961 0)
(-0.0246499 -0.324051 0)
(-0.0178125 0.151662 0)
(-0.0612771 0.223636 0)
(-0.0522014 0.2177 0)
(-0.0142252 0.195013 0)
(0.0356246 0.171161 0)
(0.0888932 0.149187 0)
(0.141589 0.129486 0)
(0.191421 0.111468 0)
(0.236789 0.0940959 0)
(0.276293 0.0761905 0)
(0.3084 0.056521 0)
(0.331244 0.0337669 0)
(0.342447 0.00641374 0)
(0.339016 -0.02752 0)
(0.317149 -0.0711946 0)
(0.272264 -0.130549 0)
(0.200168 -0.216496 0)
(0.103022 -0.338355 0)
(0.00437993 -0.456788 0)
(-0.0159577 -0.369329 0)
(-0.024226 0.20826 0)
(-0.0379186 0.230352 0)
(0.0372785 0.17654 0)
(0.125086 0.136879 0)
(0.205896 0.1091 0)
(0.27812 0.088263 0)
(0.342416 0.0721675 0)
(0.399066 0.0592245 0)
(0.448113 0.048054 0)
(0.489324 0.037525 0)
(0.522022 0.0266997 0)
(0.544976 0.0147323 0)
(0.556305 0.000750917 0)
(0.55336 -0.0163154 0)
(0.532332 -0.0383058 0)
(0.487758 -0.0691616 0)
(0.41115 -0.119103 0)
(0.290894 -0.209351 0)
(0.133137 -0.338288 0)
(0.0387776 -0.340366 0)
(0.241884 0.109131 0)
(0.313449 0.0971141 0)
(0.444312 0.056966 0)
(0.549626 0.0351079 0)
(0.624072 0.0237391 0)
(0.679636 0.0167096 0)
(0.723533 0.0119794 0)
(0.758857 0.00869274 0)
(0.787155 0.00625288 0)
(0.809224 0.00422903 0)
(0.825242 0.00232704 0)
(0.83484 0.000339035 0)
(0.837158 -0.00191126 0)
(0.830777 -0.00459226 0)
(0.813399 -0.00802938 0)
(0.781133 -0.0128843 0)
(0.725689 -0.0212278 0)
(0.629861 -0.038091 0)
(0.459268 -0.0855481 0)
(0.304894 -0.125697 0)
)
;

boundaryField
{
    movingWall
    {
        type            calculated;
        value           uniform (1 0 0);
    }
    fixedWalls
    {
        type            calculated;
        value           uniform (0 0 0);
    }
    frontAndBack
    {
        type            empty;
    }
}


// ************************************************************************* //
