/*--------------------------------*- C++ -*----------------------------------*\
  =========                 |
  \\      /  F ield         | OpenFOAM: The Open Source CFD Toolbox
   \\    /   O peration     | Website:  https://openfoam.org
    \\  /    A nd           | Version:  13
     \\/     M anipulation  |
\*---------------------------------------------------------------------------*/
FoamFile
{
    format      ascii;
    class       volScalarField;
    location    "8";
    object      p;
}
// * * * * * * * * * * * * * * * * * * * * * * * * * * * * * * * * * * * * * //

dimensions      [0 2 -2 0 0 0 0];

internalField   nonuniform List<scalar> 
400
(
-1.0999e-09
-0.000351045
-0.00072302
-0.000925364
-0.0008773
-0.00055367
4.62743e-05
0.000908801
0.00200611
0.00329241
0.00469929
0.00613376
0.0074818
0.00862031
0.00943676
0.0098551
0.0098621
0.00952833
0.00902323
0.00860869
0.000351659
-9.29586e-06
-0.000320646
-0.000465192
-0.000389434
-7.82901e-05
0.000469042
0.00124362
0.00222437
0.0033735
0.00463207
0.00591843
0.00713189
0.00816334
0.00891321
0.00931401
0.00935197
0.0090826
0.00864227
0.00821535
0.000738339
0.000276062
-5.70636e-05
-0.000193719
-0.000117431
0.000170187
0.000667161
0.00136919
0.00226335
0.00332121
0.0044931
0.00570519
0.00686212
0.00785667
0.00858734
0.00898082
0.00901339
0.0087247
0.00822706
0.00767079
0.000949683
0.000357956
-4.14096e-05
-0.000206937
-0.000151859
0.000104914
0.000557553
0.00120647
0.0020479
0.003064
0.0042143
0.00543027
0.00661565
0.00765475
0.00843034
0.0088486
0.0088648
0.00850198
0.00786916
0.00712417
0.000852357
0.000123972
-0.000359772
-0.000574822
-0.000556461
-0.000337649
7.36525e-05
0.00068412
0.00150095
0.00251858
0.00370676
0.0050014
0.00630136
0.00747418
0.00837422
0.008872
0.00888875
0.00842777
0.00761095
0.00662656
0.000348002
-0.000516395
-0.00109149
-0.00136717
-0.00139711
-0.00122542
-0.000859643
-0.000284213
0.000522063
0.00156949
0.00284182
0.00428195
0.00578384
0.00719289
0.00832286
0.00898999
0.00906118
0.00850724
0.00746932
0.00618417
-0.000650016
-0.00164873
-0.00231959
-0.00266454
-0.00275577
-0.00264725
-0.00234387
-0.00181798
-0.00102997
5.24082e-05
0.00143448
0.00307444
0.00486698
0.00663497
0.00814032
0.00912091
0.00935621
0.00875437
0.00746797
0.00580055
-0.00222584
-0.00335841
-0.00413048
-0.00455511
-0.00472662
-0.00470959
-0.00450481
-0.00406936
-0.0033397
-0.00225286
-0.000769359
0.00109912
0.00326379
0.00553359
0.00761212
0.00913004
0.0097283
0.00919405
0.00765787
0.00550827
-0.00446592
-0.00573239
-0.00661217
-0.00712961
-0.00740838
-0.0075268
-0.00748147
-0.0072116
-0.00662396
-0.00561421
-0.00409122
-0.00201279
0.000577566
0.00349952
0.00640506
0.00879011
0.0100865
0.0098604
0.00813931
0.00540668
-0.00746228
-0.00886022
-0.00985173
-0.0104739
-0.0108918
-0.0112034
-0.0114028
-0.0114102
-0.0110983
-0.0103104
-0.00888387
-0.00668758
-0.00367882
2.18093e-05
0.00404766
0.00774915
0.0102672
0.0107942
0.0090925
0.00571889
-0.0113169
-0.0128356
-0.0139314
-0.0146577
-0.0152399
-0.0158048
-0.0163479
-0.0167715
-0.0169116
-0.0165514
-0.0154366
-0.0133109
-0.00998993
-0.00545764
-2.65221e-05
0.00553989
0.0100255
0.0120486
0.0108251
0.00688563
-0.0161526
-0.0177616
-0.0189237
-0.0197177
-0.0204586
-0.0213154
-0.0222892
-0.0232668
-0.0240491
-0.0243554
-0.0238262
-0.0220516
-0.0186405
-0.0133488
-0.00631373
0.00169145
0.00909423
0.0137328
0.0138545
0.00972317
-0.0221408
-0.0237651
-0.0248879
-0.0256356
-0.0264593
-0.0275857
-0.0290234
-0.0306446
-0.0322172
-0.0333998
-0.0337266
-0.0326154
-0.0294215
-0.023584
-0.0149097
-0.00398781
0.0073857
0.0161502
0.0190602
0.0156828
-0.0295697
-0.0310317
-0.0318683
-0.0323085
-0.0330127
-0.0342762
-0.0361071
-0.0383551
-0.0407543
-0.0429066
-0.0442479
-0.044027
-0.0413378
-0.0352371
-0.0250567
-0.0109418
0.00539929
0.020111
0.0279639
0.0272419
-0.0389988
-0.0398757
-0.0398921
-0.0395079
-0.0396956
-0.0408077
-0.0428171
-0.0455268
-0.0486229
-0.0516481
-0.053949
-0.0546242
-0.0525212
-0.0463153
-0.0347792
-0.0173604
0.00478435
0.0274506
0.0431884
0.0483799
-0.051545
-0.0508632
-0.0489492
-0.0468022
-0.0458184
-0.0463188
-0.0481538
-0.051024
-0.0545315
-0.0581375
-0.0610922
-0.0623586
-0.0605713
-0.0540496
-0.0410159
-0.02006
0.00871683
0.0415677
0.069047
0.0849388
-0.0694329
-0.0650064
-0.0588456
-0.0533429
-0.0502695
-0.0496019
-0.0508766
-0.0535902
-0.057192
-0.0610136
-0.0641833
-0.0655208
-0.0634479
-0.0559532
-0.0407397
-0.0154713
0.0212487
0.0672658
0.112037
0.145281
-0.0992537
-0.0842245
-0.0685201
-0.0572029
-0.0511139
-0.0489511
-0.0495603
-0.052065
-0.0556767
-0.0595399
-0.0626487
-0.0636587
-0.0607524
-0.0515737
-0.0332479
-0.00241909
0.0443215
0.10818
0.180603
0.246495
-0.171151
-0.11156
-0.0739808
-0.0543691
-0.0455003
-0.0425555
-0.0432185
-0.0461195
-0.0501845
-0.0543646
-0.0575614
-0.0583861
-0.0547938
-0.0440883
-0.0227673
0.013845
0.0721509
0.15999
0.280937
0.432604
-0.350852
-0.150872
-0.068925
-0.0432091
-0.0339383
-0.0314485
-0.033053
-0.0370884
-0.0422513
-0.0473904
-0.0513061
-0.0525538
-0.0491135
-0.038191
-0.0157194
0.0245689
0.0934739
0.212177
0.412109
0.719056
)
;

boundaryField
{
    movingWall
    {
        type            zeroGradient;
    }
    fixedWalls
    {
        type            zeroGradient;
    }
    frontAndBack
    {
        type            empty;
    }
}


// ************************************************************************* //
