/*--------------------------------*- C++ -*----------------------------------*\
  =========                 |
  \\      /  F ield         | OpenFOAM: The Open Source CFD Toolbox
   \\    /   O peration     | Website:  https://openfoam.org
    \\  /    A nd           | Version:  13
     \\/     M anipulation  |
\*---------------------------------------------------------------------------*/
FoamFile
{
    format      ascii;
    class       surfaceScalarField;
    location    "8";
    object      phi_0;
}
// * * * * * * * * * * * * * * * * * * * * * * * * * * * * * * * * * * * * * //

dimensions      [0 3 -1 0 0 0 0];

internalField   nonuniform List<scalar> 
760
(
-2.0038e-06
2.00395e-06
-3.90147e-05
3.70108e-05
-0.000108784
6.97685e-05
-0.000198873
9.00887e-05
-0.000297446
9.85736e-05
-0.00039494
9.74942e-05
-0.0004838
8.88596e-05
-0.000557706
7.39065e-05
-0.000611023
5.33162e-05
-0.00063869
2.76673e-05
-0.000636609
-2.08079e-06
-0.000602415
-3.41938e-05
-0.000536544
-6.58707e-05
-0.00044326
-9.32829e-05
-0.000331393
-0.000111867
-0.000214329
-0.000117065
-0.000108843
-0.000105485
-3.23139e-05
-7.65281e-05
2.36065e-06
-3.46742e-05
2.36091e-06
-3.81046e-05
4.01085e-05
-0.000154439
0.000153345
-0.00033748
0.000252809
-0.000562148
0.000314756
-0.000803708
0.000340135
-0.00104077
0.000334559
-0.0012554
0.000303491
-0.00143223
0.000250736
-0.00155772
0.000178803
-0.00162014
9.0085e-05
-0.00161048
-1.17356e-05
-0.00152418
-0.000120494
-0.0013633
-0.000226748
-0.00113868
-0.000317901
-0.00087119
-0.00037936
-0.000591161
-0.000397094
-0.000335141
-0.000361505
-0.000139336
-0.000272334
-2.9935e-05
-0.000144076
-2.75729e-05
-7.74366e-05
0.000117545
-0.000274636
0.000350544
-0.000558229
0.000536401
-0.00089305
0.000649578
-0.00124618
0.000693265
-0.00158897
0.00067735
-0.001897
0.000611519
-0.00214918
0.000502918
-0.00232706
0.000356686
-0.0024149
0.000177928
-0.0024008
-2.58346e-05
-0.0022788
-0.000242491
-0.00205161
-0.000453942
-0.00173333
-0.000636184
-0.00135124
-0.000761446
-0.000945389
-0.000802946
-0.000564655
-0.000742237
-0.000258757
-0.000578228
-6.68865e-05
-0.000335951
-9.44593e-05
-0.000111427
0.000228971
-0.000381755
0.000620872
-0.000755728
0.000910374
-0.00118671
0.00108056
-0.00163479
0.00114134
-0.00206637
0.00110892
-0.00245304
0.00099819
-0.00277019
0.000820077
-0.00299606
0.000582548
-0.00311165
0.000293521
-0.00310199
-3.54864e-05
-0.00295852
-0.000385963
-0.00268235
-0.000730112
-0.00228798
-0.00103056
-0.00180618
-0.00124324
-0.00128462
-0.00132451
-0.000784211
-0.00124265
-0.000370212
-0.000992225
-9.9276e-05
-0.000606888
-0.000193736
-0.000140856
0.000369827
-0.000477359
0.000957375
-0.000934225
0.00136724
-0.00145343
0.00159977
-0.00198855
0.00167647
-0.00250229
0.00162266
-0.0029638
0.0014597
-0.0033463
0.00120258
-0.00362548
0.000861729
-0.00377911
0.000447153
-0.0037881
-2.64928e-05
-0.00363918
-0.000534879
-0.00332894
-0.00104036
-0.00286896
-0.00149053
-0.0022909
-0.00182131
-0.00164924
-0.00196616
-0.00101913
-0.00187277
-0.000486456
-0.0015249
-0.000131104
-0.00096224
-0.000324841
-0.000167849
0.000537676
-0.000566373
0.0013559
-0.00110201
0.00190288
-0.00170589
0.00220365
-0.00232568
0.00229627
-0.00292132
0.00221831
-0.00346066
0.00199904
-0.00391574
0.00165766
-0.00426023
0.00120622
-0.00446833
0.000655254
-0.00451544
2.06235e-05
-0.00438113
-0.000669194
-0.00405377
-0.00136772
-0.00353788
-0.00200641
-0.00286233
-0.00249685
-0.0020871
-0.00274139
-0.0013042
-0.00265567
-0.000627392
-0.0022017
-0.000169006
-0.00142063
-0.000493846
-0.000194498
0.000732174
-0.000653831
0.00181523
-0.00126712
0.00251616
-0.00195504
0.00289157
-0.00266004
0.00300127
-0.0033403
0.00289857
-0.00396354
0.00262227
-0.00450165
0.00219578
-0.00492692
0.00163148
-0.00520989
0.000938225
-0.00531948
0.000130214
-0.00522531
-0.000763368
-0.00490363
-0.0016894
-0.00434646
-0.00256358
-0.00357414
-0.00326918
-0.00264828
-0.00366725
-0.00167905
-0.00362491
-0.000816795
-0.00306395
-0.000220854
-0.00201657
-0.000714701
-0.00022245
0.000954624
-0.000743616
0.0023364
-0.00143527
0.00320782
-0.00220757
0.00366387
-0.00299844
0.00379214
-0.00376549
0.00366562
-0.00447769
0.00333447
-0.0051082
0.00282629
-0.00562909
0.00215237
-0.00600795
0.00131709
-0.00620685
0.000329107
-0.00618396
-0.00078625
-0.00589943
-0.00197393
-0.00532628
-0.00313673
-0.00446778
-0.00412768
-0.00337897
-0.00475606
-0.00218517
-0.00481871
-0.00108166
-0.00416746
-0.000295868
-0.00280237
-0.00101057
-0.000252984
0.00120761
-0.000838302
0.00292171
-0.00160927
0.00397879
-0.00246485
0.00451945
-0.00333906
0.00466634
-0.00419031
0.00451687
-0.00499057
0.00413472
-0.00571616
0.00355188
-0.00634093
0.00277713
-0.00683148
0.00180764
-0.00714446
0.000642086
-0.00722671
-0.000703999
-0.00701989
-0.00218075
-0.0064717
-0.00368492
-0.0055572
-0.00504218
-0.00431052
-0.00600273
-0.00286088
-0.00626835
-0.00145169
-0.00557666
-0.000405255
-0.0038488
-0.00141582
-0.000287371
0.00149498
-0.000939723
0.00357406
-0.00178945
0.00482852
-0.00272288
0.00545288
-0.00367075
0.00561421
-0.00459388
0.00544001
-0.00546926
0.0050101
-0.00627882
0.00436143
-0.00700117
0.00349948
-0.00760544
0.00241191
-0.00804674
0.00108339
-0.00826373
-0.000487013
-0.00818078
-0.0022637
-0.00771625
-0.00414945
-0.00680525
-0.00595319
-0.00544034
-0.00736764
-0.0037305
-0.0079782
-0.00195666
-0.0073505
-0.000562858
-0.0052426
-0.00197868
-0.000327566
0.00182254
-0.00105026
0.00429676
-0.00197495
0.0057532
-0.00297317
0.00645109
-0.00397322
0.00661426
-0.00494033
0.00640711
-0.00585888
0.00592866
-0.00671933
0.00522188
-0.00750888
0.00428904
-0.0082044
0.00310742
-0.00876611
0.0016451
-0.00913152
-0.000121609
-0.00921474
-0.00218047
-0.00890633
-0.00445785
-0.00809331
-0.00676621
-0.00670277
-0.00875818
-0.00478398
-0.00989699
-0.00261909
-0.00951539
-0.000785367
-0.00707633
-0.00276405
-0.00037742
0.00219996
-0.001175
0.00509434
-0.00216577
0.00674397
-0.00320401
0.00748933
-0.00421744
0.00762769
-0.00517859
0.00736826
-0.00608225
0.00683231
-0.00693063
0.00607026
-0.00772394
0.00508235
-0.0084531
0.00383658
-0.00909246
0.00228446
-0.00958953
0.000375469
-0.00986167
-0.00190834
-0.00978234
-0.00453718
-0.00919213
-0.00735642
-0.00793327
-0.010017
-0.00594477
-0.0118855
-0.00343779
-0.0120224
-0.00109108
-0.00942303
-0.00385513
-0.000444868
0.00264483
-0.00132517
0.00597464
-0.0023654
0.00778419
-0.00340133
0.00852526
-0.00436496
0.00859132
-0.00524135
0.00824465
-0.00603978
0.00763075
-0.00677797
0.00680845
-0.00747345
0.00577782
-0.00813731
0.00450044
-0.00876693
0.00291408
-0.00933733
0.000945871
-0.00978162
-0.00146405
-0.00998155
-0.00433725
-0.00974831
-0.00758966
-0.0088367
-0.0109287
-0.00702852
-0.0136937
-0.00435782
-0.0146931
-0.00149452
-0.0122863
-0.00534965
-0.00054596
0.00319079
-0.001523
0.00695168
-0.00258245
0.00884364
-0.00354604
0.00948885
-0.00436221
0.00940749
-0.00503854
0.00892098
-0.00560527
0.00819748
-0.00609982
0.007303
-0.00656059
0.00623858
-0.0070232
0.00496306
-0.00751541
0.00340629
-0.0080482
0.00147866
-0.00859613
-0.000916119
-0.00907517
-0.00385821
-0.00930428
-0.00736056
-0.00897868
-0.0112543
-0.00770494
-0.0149674
-0.00522499
-0.017173
-0.00199082
-0.0155205
-0.00734047
-0.0007115
0.00390229
-0.00180665
0.00804684
-0.00282606
0.00986305
-0.00359901
0.0102618
-0.00411846
0.00992694
-0.00443307
0.0092356
-0.00460389
0.0083683
-0.00469266
0.00739178
-0.00475994
0.00630586
-0.00486585
0.00506897
-0.00506895
0.00360939
-0.00542086
0.00183057
-0.00595119
-0.000385791
-0.00663884
-0.00317056
-0.00736137
-0.00663803
-0.00781977
-0.0107959
-0.007485
-0.0153022
-0.00573308
-0.0189249
-0.00251877
-0.0187348
-0.00985924
-0.00099186
0.00489415
-0.00222431
0.00927929
-0.00307257
0.0107113
-0.00344313
0.0106323
-0.00343358
0.00991739
-0.00316427
0.00896628
-0.00273889
0.00794293
-0.00224619
0.00689908
-0.0017652
0.00582487
-0.00137368
0.00467744
-0.00115244
0.00338815
-0.00118643
0.00186456
-0.0015587
-1.35165e-05
-0.00232493
-0.00240434
-0.00346994
-0.00549302
-0.00479547
-0.00947033
-0.0057536
-0.014344
-0.00538507
-0.0192935
-0.00288872
-0.0212312
-0.012748
-0.00144063
0.00633478
-0.00276766
0.0106063
-0.0031134
0.0110571
-0.00267834
0.0101973
-0.00177804
0.00901709
-0.000635834
0.00782408
0.000600873
0.00670622
0.00182871
0.00567124
0.00296218
0.00469141
0.00392339
0.00371623
0.00462721
0.00268433
0.00497502
0.00151675
0.00484778
0.000113732
0.00413201
-0.00168857
0.00271389
-0.00407489
0.000601402
-0.00735784
-0.00183671
-0.0119059
-0.00350009
-0.0176301
-0.00269883
-0.0220324
-0.0154468
-0.00209036
0.00842514
-0.00298628
0.0115022
-0.00192972
0.0100005
2.97432e-05
0.00823783
0.00228472
0.00676212
0.00456358
0.00554522
0.00673121
0.00453859
0.0087086
0.00369385
0.0104422
0.00295779
0.0118852
0.00227324
0.0129695
0.00160001
0.013604
0.000882241
0.0136758
4.19775e-05
0.013041
-0.0010538
0.0114955
-0.00252934
0.00881557
-0.00467794
0.00499278
-0.00808313
0.000804756
-0.0134421
-0.00144549
-0.0197822
-0.0168923
-0.00242834
0.0108535
9.39829e-05
0.00897991
0.00434406
0.00575041
0.00844101
0.00414087
0.0120943
0.00310879
0.0152901
0.00234942
0.018038
0.00179076
0.0203585
0.0013733
0.0222697
0.00104656
0.0237701
0.000772922
0.0248478
0.000522242
0.0254704
0.000259689
0.0255545
-4.21654e-05
0.0249291
-0.000428365
0.0233613
-0.000961553
0.0204931
-0.00180968
0.0158249
-0.00341502
0.00904375
-0.00666088
0.00174311
-0.0124815
-0.0151492
0.0108535
0.0198334
0.0255838
0.0297247
0.0328335
0.0351829
0.0369737
0.038347
0.0393935
0.0401664
0.0406887
0.0409484
0.0409062
0.0404778
0.0395163
0.0377066
0.0342916
0.0276307
0.0151492
)
;

boundaryField
{
    movingWall
    {
        type            calculated;
        value           uniform 0;
    }
    fixedWalls
    {
        type            calculated;
        value           uniform 0;
    }
    frontAndBack
    {
        type            empty;
    }
}


// ************************************************************************* //
