/*--------------------------------*- C++ -*----------------------------------*\
  =========                 |
  \\      /  F ield         | OpenFOAM: The Open Source CFD Toolbox
   \\    /   O peration     | Website:  https://openfoam.org
    \\  /    A nd           | Version:  13
     \\/     M anipulation  |
\*---------------------------------------------------------------------------*/
FoamFile
{
    format      ascii;
    class       volScalarField;
    location    "14";
    object      p;
}
// * * * * * * * * * * * * * * * * * * * * * * * * * * * * * * * * * * * * * //

dimensions      [0 2 -2 0 0 0 0];

internalField   nonuniform List<scalar> 
400
(
7.30633e-09
-0.000424997
-0.000915087
-0.00125062
-0.00133007
-0.00111532
-0.000594483
0.000229296
0.00133561
0.00267813
0.0041752
0.00570577
0.00711636
0.00824222
0.008942
0.00913914
0.0088576
0.00823978
0.00754009
0.0070615
0.000427612
-1.16829e-05
-0.000433843
-0.000690279
-0.000724427
-0.000515144
-5.30795e-05
0.00066232
0.00161792
0.00277813
0.00407601
0.00540918
0.00664506
0.00763967
0.00826861
0.00846385
0.00824366
0.00772293
0.00710046
0.00661051
0.000936652
0.000378226
-6.98566e-05
-0.000305415
-0.000329229
-0.000145933
0.000248393
0.000859466
0.0016853
0.00270497
0.00386741
0.00508448
0.00623374
0.00717478
0.00777971
0.00797082
0.0077511
0.00721141
0.00651314
0.00587205
0.00127184
0.000548945
1.21972e-05
-0.000257053
-0.000309295
-0.000175076
0.000144053
0.000660777
0.00138747
0.00232103
0.00342724
0.00462893
0.00580401
0.00679916
0.00746137
0.00768118
0.00743113
0.00677959
0.00588063
0.00498576
0.00124527
0.000350687
-0.000297729
-0.000631786
-0.000743118
-0.000683455
-0.000456361
-3.8643e-05
0.000600547
0.00148035
0.00258723
0.00385627
0.00516211
0.00632757
0.00715553
0.00748047
0.00722253
0.00642007
0.00524022
0.00400968
0.00070612
-0.000350692
-0.00111627
-0.00153409
-0.00173199
-0.0017782
-0.0016742
-0.001382
-0.000846862
-2.01554e-05
0.00111409
0.00251172
0.00404884
0.00552007
0.0066666
0.00723611
0.00706004
0.00612079
0.00460276
0.00294724
-0.00047753
-0.00168011
-0.00256296
-0.00308102
-0.00339666
-0.00359177
-0.0036627
-0.00355275
-0.00317696
-0.0024468
-0.00130168
0.000253406
0.0021123
0.00404763
0.00572545
0.00676809
0.00686031
0.00587193
0.00398274
0.0017947
-0.00242078
-0.00374862
-0.00474768
-0.00538408
-0.00585601
-0.0062587
-0.00658261
-0.0067501
-0.0066399
-0.00611085
-0.00503619
-0.00335226
-0.00111447
0.00145226
0.00393819
0.00579916
0.00648916
0.00566153
0.0034223
0.000583393
-0.00521813
-0.00664686
-0.00775928
-0.00853192
-0.0092034
-0.00988542
-0.0105652
-0.0111451
-0.0114638
-0.0113147
-0.0104795
-0.00878536
-0.0061848
-0.00284816
0.000766476
0.00392058
0.0057324
0.0054719
0.00301991
-0.000569556
-0.00893823
-0.0104385
-0.0116542
-0.0125712
-0.0134779
-0.0145104
-0.0156596
-0.0168133
-0.0177705
-0.0182509
-0.0179202
-0.0164495
-0.0136215
-0.00946589
-0.00441582
0.00060965
0.00429225
0.00528681
0.00297311
-0.0013853
-0.0136221
-0.0151566
-0.0164464
-0.0174858
-0.0186308
-0.0200559
-0.0217676
-0.0236487
-0.0254651
-0.0268611
-0.0273699
-0.026466
-0.0236907
-0.0188199
-0.0121336
-0.00464133
0.001857
0.0051371
0.00365096
-0.00129994
-0.0192926
-0.0208089
-0.0221017
-0.0231773
-0.0244919
-0.0262814
-0.0285827
-0.0312854
-0.034132
-0.0366975
-0.0383805
-0.0384408
-0.0361044
-0.0307959
-0.0224692
-0.0120362
-0.00169865
0.005229
0.00572026
0.00073401
-0.0259892
-0.0273988
-0.0285409
-0.0294514
-0.0307463
-0.032755
-0.0355592
-0.0390627
-0.0429922
-0.0468618
-0.0499439
-0.0512811
-0.0497751
-0.0444116
-0.0346553
-0.0210587
-0.00596733
0.00619094
0.0103543
0.00654635
-0.0338526
-0.0349747
-0.0356532
-0.036012
-0.0369275
-0.0388603
-0.04194
-0.0460789
-0.0509817
-0.056102
-0.0605958
-0.0633078
-0.0628341
-0.0577114
-0.0468195
-0.0300927
-0.00959917
0.0094221
0.019536
0.0191329
-0.0433138
-0.0437237
-0.0433211
-0.0424652
-0.0424405
-0.0438571
-0.0468646
-0.0513501
-0.056967
-0.0630887
-0.0687507
-0.072617
-0.0730146
-0.0680833
-0.0561317
-0.0363306
-0.0100095
0.0174504
0.036391
0.0429396
-0.055428
-0.0541362
-0.0514581
-0.0483396
-0.0466254
-0.0470025
-0.0495468
-0.0540455
-0.060042
-0.0667833
-0.0731568
-0.0776417
-0.078322
-0.0729969
-0.059488
-0.0362173
-0.00345709
0.03415
0.065429
0.083623
-0.072438
-0.067287
-0.0599946
-0.0530589
-0.0488019
-0.0476572
-0.0494241
-0.0536717
-0.0597457
-0.0667058
-0.0732521
-0.0776534
-0.0777403
-0.0709787
-0.0547343
-0.0267223
0.0139902
0.0644218
0.112923
0.148365
-0.101283
-0.0854884
-0.0683872
-0.0554688
-0.0479432
-0.0450638
-0.0460104
-0.0499759
-0.0560147
-0.0629518
-0.0692967
-0.0730903
-0.071882
-0.0627576
-0.042503
-0.00794921
0.0434651
0.111658
0.187736
0.254642
-0.173596
-0.112842
-0.0728635
-0.0518457
-0.0415115
-0.0376487
-0.0384802
-0.0427261
-0.0490898
-0.05617
-0.062397
-0.0656912
-0.0633369
-0.0520588
-0.0279888
0.0134006
0.0777277
0.171272
0.298101
0.447794
-0.353495
-0.153199
-0.0693131
-0.0425059
-0.031531
-0.0275806
-0.0289382
-0.0340085
-0.0411733
-0.0488834
-0.0554346
-0.0587007
-0.0559841
-0.0439352
-0.0180715
0.0278719
0.103906
0.228217
0.42972
0.73132
)
;

boundaryField
{
    movingWall
    {
        type            zeroGradient;
    }
    fixedWalls
    {
        type            zeroGradient;
    }
    frontAndBack
    {
        type            empty;
    }
}


// ************************************************************************* //
