/*--------------------------------*- C++ -*----------------------------------*\
  =========                 |
  \\      /  F ield         | OpenFOAM: The Open Source CFD Toolbox
   \\    /   O peration     | Website:  https://openfoam.org
    \\  /    A nd           | Version:  13
     \\/     M anipulation  |
\*---------------------------------------------------------------------------*/
FoamFile
{
    format      ascii;
    class       volVectorField;
    location    "14";
    object      U_0;
}
// * * * * * * * * * * * * * * * * * * * * * * * * * * * * * * * * * * * * * //

dimensions      [0 1 -1 0 0 0 0];

internalField   nonuniform List<vector> 
400
(
(0.000117283 -0.000119457 0)
(-0.000213885 7.28283e-05 0)
(-0.00141895 0.000270992 0)
(-0.00330648 0.000398158 0)
(-0.00558931 0.000462634 0)
(-0.0080145 0.000480525 0)
(-0.0103754 0.000460958 0)
(-0.0124883 0.0004056 0)
(-0.0141749 0.000312014 0)
(-0.0152593 0.000178491 0)
(-0.0155824 8.96006e-06 0)
(-0.0150321 -0.000183222 0)
(-0.0135821 -0.00037346 0)
(-0.0113293 -0.000527962 0)
(-0.0085142 -0.000610012 0)
(-0.00551147 -0.000590038 0)
(-0.00277884 -0.00045673 0)
(-0.000764899 -0.00022597 0)
(0.000232064 4.55412e-05 0)
(0.000218456 0.000213825 0)
(-8.06856e-05 0.000210109 0)
(-0.00176332 0.00168093 0)
(-0.00535249 0.00316012 0)
(-0.0103663 0.00416081 0)
(-0.016196 0.00466169 0)
(-0.0222871 0.00472948 0)
(-0.0281507 0.00441903 0)
(-0.0333359 0.00375409 0)
(-0.0374096 0.00274234 0)
(-0.0399619 0.00140411 0)
(-0.0406423 -0.000197082 0)
(-0.0392226 -0.00193168 0)
(-0.0356744 -0.00359717 0)
(-0.0302399 -0.00493543 0)
(-0.023467 -0.00567815 0)
(-0.0161834 -0.00561685 0)
(-0.00938674 -0.00468334 0)
(-0.0040495 -0.0030221 0)
(-0.000850317 -0.0010579 0)
(0.000112333 0.000275935 0)
(-0.000322557 0.00152027 0)
(-0.00362142 0.00538416 0)
(-0.00957837 0.00877728 0)
(-0.0173843 0.0110358 0)
(-0.0261826 0.0121285 0)
(-0.0352291 0.0121714 0)
(-0.0438545 0.0112668 0)
(-0.0514304 0.00946917 0)
(-0.0573546 0.00681429 0)
(-0.0610647 0.00337776 0)
(-0.0620871 -0.000663444 0)
(-0.060115 -0.004986 0)
(-0.0551031 -0.00910987 0)
(-0.0473563 -0.0124378 0)
(-0.0375829 -0.014355 0)
(-0.0268753 -0.0143834 0)
(-0.0165859 -0.0123641 0)
(-0.00808575 -0.00861942 0)
(-0.00244391 -0.00405969 0)
(-5.98923e-05 -0.000432869 0)
(-0.000536963 0.00380391 0)
(-0.00537074 0.0111326 0)
(-0.0135767 0.016952 0)
(-0.0239616 0.0206959 0)
(-0.0354212 0.0224173 0)
(-0.0470673 0.0223134 0)
(-0.0581163 0.0205449 0)
(-0.0678294 0.0172016 0)
(-0.075492 0.0123547 0)
(-0.0804277 0.00614803 0)
(-0.0820495 -0.00110644 0)
(-0.0799444 -0.0088573 0)
(-0.0739821 -0.0162938 0)
(-0.0644308 -0.0224021 0)
(-0.0520479 -0.0261176 0)
(-0.0381034 -0.0265769 0)
(-0.02428 -0.0234316 0)
(-0.0124119 -0.0171402 0)
(-0.00409644 -0.00912374 0)
(-0.000209024 -0.00196518 0)
(-0.000721763 0.00696337 0)
(-0.00695195 0.0187616 0)
(-0.0172426 0.0274647 0)
(-0.0300195 0.0328593 0)
(-0.0439395 0.0352096 0)
(-0.0580008 0.0348523 0)
(-0.0713509 0.0320256 0)
(-0.0831898 0.0268554 0)
(-0.0927291 0.0194392 0)
(-0.0991954 0.00997508 0)
(-0.101873 -0.00110347 0)
(-0.100187 -0.013022 0)
(-0.093832 -0.0246211 0)
(-0.0829184 -0.0344092 0)
(-0.0681358 -0.0407537 0)
(-0.0508586 -0.0422325 0)
(-0.0331201 -0.0381197 0)
(-0.0173584 -0.0288791 0)
(-0.00591836 -0.0164368 0)
(-0.000350274 -0.00433352 0)
(-0.000880952 0.0109016 0)
(-0.00836596 0.0280988 0)
(-0.0205537 0.0401267 0)
(-0.0355288 0.047339 0)
(-0.0517342 0.0503424 0)
(-0.0680859 0.0496844 0)
(-0.083703 0.0457075 0)
(-0.0977653 0.0385702 0)
(-0.109444 0.028371 0)
(-0.11788 0.0153215 0)
(-0.12221 -7.32962e-05 0)
(-0.121641 -0.0168611 0)
(-0.115588 -0.0335501 0)
(-0.103869 -0.0481263 0)
(-0.0869539 -0.0582481 0)
(-0.0662046 -0.0616867 0)
(-0.0439946 -0.0570264 0)
(-0.0235224 -0.0444812 0)
(-0.00818773 -0.0264407 0)
(-0.000521229 -0.00765864 0)
(-0.00101519 0.0155322 0)
(-0.00961019 0.0389668 0)
(-0.0234788 0.0547362 0)
(-0.0404211 0.0639448 0)
(-0.0586997 0.0676679 0)
(-0.0771841 0.0667398 0)
(-0.0950055 0.0616381 0)
(-0.111367 0.0525471 0)
(-0.125435 0.0395285 0)
(-0.136291 0.0227429 0)
(-0.142921 0.00268296 0)
(-0.144277 -0.0196089 0)
(-0.139404 -0.0423712 0)
(-0.127684 -0.0630592 0)
(-0.10917 -0.0784858 0)
(-0.0850117 -0.0853045 0)
(-0.0578023 -0.0809465 0)
(-0.0316024 -0.0649185 0)
(-0.0112572 -0.0399106 0)
(-0.000767187 -0.0122324 0)
(-0.00112219 0.0207669 0)
(-0.0106672 0.0511643 0)
(-0.0259545 0.0710473 0)
(-0.0445618 0.0824258 0)
(-0.0646032 0.0869653 0)
(-0.0849391 0.0858664 0)
(-0.104756 0.0797765 0)
(-0.123326 0.0688996 0)
(-0.139866 0.0532171 0)
(-0.153441 0.0327595 0)
(-0.162926 0.00789644 0)
(-0.16702 -0.0203705 0)
(-0.164359 -0.0501335 0)
(-0.15376 -0.0783812 0)
(-0.134641 -0.101002 0)
(-0.107623 -0.113211 0)
(-0.0752225 -0.110671 0)
(-0.0422915 -0.0914172 0)
(-0.0155322 -0.0579788 0)
(-0.0011439 -0.0185441 0)
(-0.00119969 0.0265067 0)
(-0.0115153 0.0644514 0)
(-0.027901 0.0887433 0)
(-0.0477681 0.102423 0)
(-0.0691065 0.107866 0)
(-0.0908022 0.106726 0)
(-0.112139 0.0998611 0)
(-0.132517 0.0874973 0)
(-0.151264 0.069498 0)
(-0.167513 0.0456841 0)
(-0.180109 0.0161786 0)
(-0.187577 -0.0182232 0)
(-0.18818 -0.0556591 0)
(-0.180118 -0.0928249 0)
(-0.161965 -0.12474 0)
(-0.133421 -0.144952 0)
(-0.0963963 -0.146659 0)
(-0.0561391 -0.12527 0)
(-0.0214623 -0.0821105 0)
(-0.00172534 -0.0273083 0)
(-0.00125113 0.0326454 0)
(-0.0121547 0.0785493 0)
(-0.0292652 0.107422 0)
(-0.0498664 0.12343 0)
(-0.0718357 0.129789 0)
(-0.0941153 0.128698 0)
(-0.116131 0.121283 0)
(-0.137465 0.107808 0)
(-0.157643 0.0880012 0)
(-0.17597 0.0614126 0)
(-0.191401 0.0278062 0)
(-0.202447 -0.0124078 0)
(-0.207143 -0.0576671 0)
(-0.203146 -0.104678 0)
(-0.188081 -0.147859 0)
(-0.160332 -0.179102 0)
(-0.120479 -0.188545 0)
(-0.0733049 -0.167461 0)
(-0.0295094 -0.113996 0)
(-0.00261464 -0.0394965 0)
(-0.00129463 0.0390918 0)
(-0.0126512 0.0931668 0)
(-0.0300933 0.126602 0)
(-0.0507861 0.144774 0)
(-0.0724953 0.15189 0)
(-0.0942534 0.150804 0)
(-0.115675 0.142982 0)
(-0.136585 0.128766 0)
(-0.15679 0.107758 0)
(-0.175894 0.0792158 0)
(-0.193141 0.0424726 0)
(-0.207257 -0.00260513 0)
(-0.216317 -0.0550348 0)
(-0.217672 -0.111953 0)
(-0.208095 -0.167698 0)
(-0.184417 -0.212928 0)
(-0.145101 -0.234519 0)
(-0.0931488 -0.218027 0)
(-0.0400421 -0.155269 0)
(-0.00395725 -0.0563597 0)
(-0.00137742 0.0458236 0)
(-0.0132002 0.108064 0)
(-0.030627 0.145753 0)
(-0.0506771 0.165612 0)
(-0.0710093 0.173038 0)
(-0.0908025 0.171675 0)
(-0.109921 0.163407 0)
(-0.128499 0.14871 0)
(-0.146699 0.127104 0)
(-0.164544 0.0975899 0)
(-0.181743 0.0590573 0)
(-0.197502 0.0107402 0)
(-0.210285 -0.0471952 0)
(-0.217555 -0.112791 0)
(-0.215605 -0.181057 0)
(-0.1998 -0.242328 0)
(-0.165931 -0.280778 0)
(-0.113673 -0.275189 0)
(-0.0530894 -0.206937 0)
(-0.00595331 -0.0794054 0)
(-0.00159979 0.0529903 0)
(-0.0142197 0.123166 0)
(-0.0314194 0.164357 0)
(-0.0500254 0.18495 0)
(-0.0676386 0.191823 0)
(-0.083704 0.189564 0)
(-0.0984374 0.180544 0)
(-0.11235 0.165428 0)
(-0.126027 0.143723 0)
(-0.139983 0.114245 0)
(-0.154523 0.0755171 0)
(-0.169552 0.0261581 0)
(-0.184286 -0.0346016 0)
(-0.196827 -0.106108 0)
(-0.203643 -0.184881 0)
(-0.199207 -0.2623 0)
(-0.176631 -0.321391 0)
(-0.130988 -0.334461 0)
(-0.0678871 -0.268404 0)
(-0.00885666 -0.110252 0)
(-0.00215727 0.0610921 0)
(-0.0164806 0.13872 0)
(-0.0334448 0.181963 0)
(-0.0496976 0.201638 0)
(-0.0629673 0.206562 0)
(-0.0732188 0.202398 0)
(-0.0811895 0.192028 0)
(-0.0878546 0.176323 0)
(-0.0942532 0.154832 0)
(-0.101412 0.126289 0)
(-0.110263 0.0889853 0)
(-0.121511 0.0410691 0)
(-0.13537 -0.0190951 0)
(-0.151082 -0.0923162 0)
(-0.166127 -0.177302 0)
(-0.175166 -0.268038 0)
(-0.169467 -0.348949 0)
(-0.139101 -0.388221 0)
(-0.0822077 -0.336165 0)
(-0.0129022 -0.150205 0)
(-0.0033984 0.0712578 0)
(-0.0212615 0.155471 0)
(-0.0381018 0.198156 0)
(-0.0507139 0.214274 0)
(-0.0574751 0.215224 0)
(-0.0593612 0.207791 0)
(-0.0578965 0.195261 0)
(-0.0546191 0.178635 0)
(-0.0510241 0.157505 0)
(-0.0485933 0.130605 0)
(-0.0488073 0.0961559 0)
(-0.053105 0.0520715 0)
(-0.0627285 -0.00386784 0)
(-0.0783326 -0.0737269 0)
(-0.0991567 -0.158614 0)
(-0.121463 -0.2564 0)
(-0.136462 -0.356023 0)
(-0.130229 -0.426234 0)
(-0.0915878 -0.402615 0)
(-0.0179953 -0.199433 0)
(-0.00581093 0.0857193 0)
(-0.0303458 0.174728 0)
(-0.0466844 0.212168 0)
(-0.05307 0.220705 0)
(-0.0498563 0.215054 0)
(-0.0398967 0.202834 0)
(-0.0258352 0.187373 0)
(-0.00983665 0.169577 0)
(0.00621091 0.148984 0)
(0.0205067 0.12435 0)
(0.0312062 0.0939598 0)
(0.0363508 0.0557485 0)
(0.0338837 0.00732178 0)
(0.0218424 -0.0540821 0)
(-0.0010756 -0.131483 0)
(-0.0339695 -0.227003 0)
(-0.0704795 -0.336891 0)
(-0.0954191 -0.437102 0)
(-0.0886718 -0.455834 0)
(-0.0230172 -0.256208 0)
(-0.00992689 0.109343 0)
(-0.0451277 0.198047 0)
(-0.0576163 0.221416 0)
(-0.0512236 0.216597 0)
(-0.0316036 0.201535 0)
(-0.00464931 0.183488 0)
(0.0257918 0.16499 0)
(0.0571226 0.146406 0)
(0.0873276 0.127019 0)
(0.114578 0.105562 0)
(0.13696 0.0804731 0)
(0.152317 0.049914 0)
(0.158161 0.0117014 0)
(0.151671 -0.0369211 0)
(0.12986 -0.099765 0)
(0.0904156 -0.182129 0)
(0.0348291 -0.288713 0)
(-0.0248497 -0.409677 0)
(-0.0630696 -0.4801 0)
(-0.0251107 -0.316551 0)
(-0.0175174 0.152831 0)
(-0.0617354 0.224133 0)
(-0.0545146 0.216399 0)
(-0.0192748 0.191935 0)
(0.0273251 0.166846 0)
(0.0771699 0.144334 0)
(0.126624 0.124728 0)
(0.173687 0.10733 0)
(0.216959 0.0909639 0)
(0.255152 0.0743245 0)
(0.286732 0.0561092 0)
(0.309771 0.0348611 0)
(0.321806 0.00889591 0)
(0.31977 -0.023942 0)
(0.299848 -0.0669334 0)
(0.257311 -0.126103 0)
(0.18776 -0.212491 0)
(0.0939614 -0.334771 0)
(-0.00100258 -0.453781 0)
(-0.0170784 -0.365359 0)
(-0.0237644 0.209153 0)
(-0.0371574 0.231529 0)
(0.0378221 0.176866 0)
(0.124512 0.136228 0)
(0.203464 0.107561 0)
(0.273451 0.0861586 0)
(0.335352 0.0699077 0)
(0.389743 0.0571545 0)
(0.436921 0.0464318 0)
(0.476675 0.0365655 0)
(0.508519 0.0265622 0)
(0.531431 0.0154609 0)
(0.543428 0.00228507 0)
(0.541732 -0.0141705 0)
(0.52234 -0.0359991 0)
(0.479552 -0.0672098 0)
(0.404982 -0.117824 0)
(0.286452 -0.20887 0)
(0.130325 -0.338295 0)
(0.0371262 -0.339416 0)
(0.242101 0.109383 0)
(0.314326 0.0974508 0)
(0.445689 0.0569888 0)
(0.550905 0.0348793 0)
(0.624722 0.0233213 0)
(0.679176 0.0162067 0)
(0.721674 0.0114848 0)
(0.755633 0.00827109 0)
(0.782847 0.00596763 0)
(0.804253 0.00414522 0)
(0.820105 0.00246416 0)
(0.830047 0.000674138 0)
(0.833171 -0.00141111 0)
(0.827982 -0.00394408 0)
(0.812035 -0.00724847 0)
(0.781139 -0.0120659 0)
(0.726529 -0.0205213 0)
(0.630857 -0.0375714 0)
(0.45956 -0.0858964 0)
(0.304662 -0.12581 0)
)
;

boundaryField
{
    movingWall
    {
        type            calculated;
        value           uniform (1 0 0);
    }
    fixedWalls
    {
        type            calculated;
        value           uniform (0 0 0);
    }
    frontAndBack
    {
        type            empty;
    }
}


// ************************************************************************* //
