/*--------------------------------*- C++ -*----------------------------------*\
  =========                 |
  \\      /  F ield         | OpenFOAM: The Open Source CFD Toolbox
   \\    /   O peration     | Website:  https://openfoam.org
    \\  /    A nd           | Version:  13
     \\/     M anipulation  |
\*---------------------------------------------------------------------------*/
FoamFile
{
    format      ascii;
    class       surfaceScalarField;
    location    "50";
    object      phi;
}
// * * * * * * * * * * * * * * * * * * * * * * * * * * * * * * * * * * * * * //

dimensions      [0 3 -1 0 0 0 0];

internalField   nonuniform List<scalar> 
760
(
4.60415e-06
-4.77458e-06
-3.88912e-05
4.34952e-05
-0.000131843
9.29521e-05
-0.000258222
0.00012638
-0.000402034
0.000143813
-0.000549841
0.000147806
-0.000689712
0.000139871
-0.000809845
0.000120133
-0.000898003
8.81581e-05
-0.000942225
4.42212e-05
-0.00093276
-9.46623e-06
-0.00086486
-6.79004e-05
-0.000741611
-0.000123249
-0.000575825
-0.000165786
-0.000389842
-0.000185983
-0.000212435
-0.000177407
-7.28303e-05
-0.000139605
7.20812e-06
-8.0039e-05
2.28312e-05
-1.56236e-05
2.2831e-05
-4.74892e-05
4.27155e-05
-0.000210549
0.000206557
-0.000475694
0.000358101
-0.000810204
0.000460892
-0.00117962
0.00051323
-0.00155223
0.000520417
-0.00189837
0.000486012
-0.00218897
0.000410741
-0.00239549
0.000294678
-0.00249195
0.00014068
-0.00245903
-4.239e-05
-0.00228922
-0.000237713
-0.00199186
-0.000420612
-0.0015961
-0.000561544
-0.00115012
-0.000631966
-0.000714988
-0.000612541
-0.000352928
-0.000501668
-0.000111396
-0.000321573
-5.71747e-06
-0.000121303
1.71131e-05
-0.000112464
0.000155181
-0.000407646
0.000501741
-0.000839152
0.000789611
-0.00135762
0.00097936
-0.00191583
0.00107144
-0.00247004
0.00107463
-0.0029787
0.000994676
-0.00340128
0.000833318
-0.0036988
0.000592199
-0.00383679
0.000278671
-0.00379024
-8.89477e-05
-0.00354962
-0.000478331
-0.00312681
-0.000843425
-0.00255896
-0.00112939
-0.00190842
-0.0012825
-0.00125637
-0.00126459
-0.000688904
-0.00106914
-0.000276716
-0.000733764
-5.33249e-05
-0.000344694
-3.62129e-05
-0.000174359
0.000329541
-0.000597135
0.00092452
-0.0011857
0.00137818
-0.00187163
0.00166529
-0.00259652
0.00179634
-0.00330838
0.00178649
-0.00395836
0.00164465
-0.00449895
0.0013739
-0.0048845
0.00097775
-0.00507423
0.000468407
-0.00503723
-0.000125951
-0.00475877
-0.00075679
-0.0042472
-0.001355
-0.00353984
-0.00183676
-0.00270572
-0.00211662
-0.00184176
-0.00212855
-0.00105901
-0.0018519
-0.000458634
-0.00133414
-0.000103681
-0.000699647
-0.000139895
-0.000229454
0.000558996
-0.00076752
0.00146259
-0.00149824
0.0021089
-0.00233473
0.00250178
-0.00320889
0.0026705
-0.00406331
0.0026409
-0.00484532
0.00242667
-0.00550385
0.00203243
-0.00598901
0.00146291
-0.00625426
0.000733654
-0.0062608
-0.000119402
-0.00598392
-0.00103368
-0.00542119
-0.00191773
-0.0046017
-0.00265624
-0.00359403
-0.0031243
-0.00250802
-0.00321456
-0.0014841
-0.00287581
-0.000665491
-0.00215276
-0.000158571
-0.00120657
-0.000298468
-0.00027585
0.000834848
-0.000912034
0.00209877
-0.00176475
0.00296163
-0.00273147
0.00346851
-0.00373667
0.00367569
-0.00472012
0.00362436
-0.00562843
0.00333497
-0.00640979
0.0028138
-0.00701204
0.00206516
-0.00738323
0.00110485
-0.00747475
-2.78852e-05
-0.00724709
-0.00126134
-0.00667961
-0.00248521
-0.00578364
-0.00355221
-0.00461772
-0.00429023
-0.00329889
-0.00453339
-0.00199967
-0.00417503
-0.000918902
-0.00323352
-0.000225528
-0.00189994
-0.000523997
-0.000311615
0.00114646
-0.00102435
0.00281151
-0.00197343
0.0039107
-0.00304456
0.00453964
-0.00415751
0.00478864
-0.00525189
0.00471875
-0.00627637
0.00435945
-0.00718131
0.00371873
-0.00791466
0.00279852
-0.00842043
0.00161061
-0.00863965
0.000191331
-0.00851532
-0.00138567
-0.00800211
-0.00299842
-0.00708338
-0.00447095
-0.00579433
-0.00557927
-0.00424676
-0.00608096
-0.00264125
-0.00578054
-0.00124431
-0.00463047
-0.000313993
-0.00283026
-0.000837991
-0.000334826
0.00148129
-0.00109836
0.00357505
-0.00211232
0.00492465
-0.00325482
0.00568214
-0.00444357
0.0059774
-0.00562051
0.00589569
-0.00673909
0.00547803
-0.00775499
0.00473463
-0.00861968
0.0036632
-0.00927631
0.00226725
-0.00965825
0.000573266
-0.00969137
-0.00135255
-0.00930264
-0.00338715
-0.00843824
-0.00533534
-0.00709375
-0.00692375
-0.00535453
-0.00782018
-0.0034326
-0.00770247
-0.00166593
-0.00639714
-0.0004343
-0.00406188
-0.00127229
-0.000344235
0.00182553
-0.00112963
0.00436045
-0.00217158
0.0059666
-0.00334424
0.00685481
-0.0045656
0.00719876
-0.00578201
0.00711209
-0.00695439
0.00665041
-0.0080472
0.00582744
-0.00901987
0.00463587
-0.00982029
0.00306767
-0.0103802
0.00113316
-0.0106138
-0.00111893
-0.0104227
-0.00357829
-0.00971098
-0.00604703
-0.00841857
-0.00821616
-0.00657556
-0.00966318
-0.00437185
-0.00990618
-0.00220165
-0.00856734
-0.00059728
-0.00566625
-0.00186957
-0.000340375
0.0021659
-0.00111806
0.00513813
-0.00214756
0.0069961
-0.0033016
0.00800885
-0.00450026
0.00839742
-0.00569628
0.00830811
-0.00686054
0.00781468
-0.00796986
0.00693676
-0.00899686
0.00566287
-0.00990138
0.00397219
-0.0106229
0.00185466
-0.0110743
-0.000667459
-0.0111414
-0.00351122
-0.0106895
-0.00649899
-0.0095925
-0.00931312
-0.00779498
-0.0114607
-0.00541434
-0.0122868
-0.00285513
-0.0111266
-0.000813648
-0.00770772
-0.00268322
-0.000327041
0.00249294
-0.00107146
0.00588255
-0.00204818
0.00797282
-0.0031296
0.00909026
-0.00423968
0.00950751
-0.00533976
0.00940818
-0.00641328
0.00888821
-0.00745284
0.00797632
-0.00844928
0.00665931
-0.00938195
0.00490486
-0.010209
0.00268173
-0.0108558
-2.06405e-05
-0.0112093
-0.00315777
-0.0111092
-0.00659907
-0.010367
-0.0100553
-0.0088197
-0.013008
-0.00645435
-0.0146522
-0.0036035
-0.0139774
-0.0010923
-0.0102189
-0.00377552
-0.000313201
0.00280614
-0.00100961
0.00657896
-0.00189864
0.00886184
-0.00285194
0.0100436
-0.00380037
0.0104559
-0.00471745
0.0103253
-0.00560239
0.00977315
-0.0064666
0.00884052
-0.00732298
0.00751568
-0.00817626
0.00575815
-0.0090123
0.00351776
-0.00978608
0.000753148
-0.0104018
-0.00254201
-0.0107013
-0.00629964
-0.0104536
-0.010303
-0.00938816
-0.0140734
-0.00731358
-0.0167267
-0.00438106
-0.0169099
-0.00143635
-0.0131636
-0.00521187
-0.000315715
0.00312186
-0.00096903
0.00723227
-0.00174633
0.00963914
-0.00251783
0.0108151
-0.00322778
0.0111659
-0.00386866
0.0109661
-0.00446006
0.0103646
-0.00503488
0.00941535
-0.00562992
0.00811072
-0.00627777
0.006406
-0.00699758
0.00423758
-0.00778206
0.00153763
-0.00857679
-0.00174729
-0.00925355
-0.00562287
-0.00957887
-0.00997767
-0.00920481
-0.0144475
-0.00774617
-0.0181854
-0.00506353
-0.0195926
-0.00183517
-0.016392
-0.00704704
-0.000363778
0.00348564
-0.00100824
0.00787673
-0.00166298
0.0102939
-0.00219976
0.0113519
-0.00259038
0.0115565
-0.00285827
0.011234
-0.00305025
0.0105565
-0.00322313
0.00958823
-0.00343712
0.00832471
-0.00375105
0.00671993
-0.00421646
0.00470299
-0.00486769
0.00218887
-0.0057037
-0.000911286
-0.00665614
-0.00467043
-0.00753879
-0.00909502
-0.00798881
-0.0139975
-0.00746244
-0.0187118
-0.00545915
-0.0215958
-0.00225026
-0.0196009
-0.0092973
-0.000505708
0.00399134
-0.00121141
0.00858243
-0.00173728
0.0108198
-0.00197394
0.0115885
-0.00194967
0.0115322
-0.00173816
0.0110225
-0.00142236
0.0102407
-0.00108495
0.00925082
-0.000807165
0.00804693
-0.000669036
0.0065818
-0.000748512
0.00478247
-0.00111722
0.00255757
-0.00182904
-0.000199466
-0.00289323
-0.00360624
-0.00421766
-0.00777059
-0.00550812
-0.012707
-0.00615545
-0.0180644
-0.00530499
-0.0224463
-0.00259246
-0.0223134
-0.0118898
-0.00081117
0.00480251
-0.00167507
0.00944633
-0.00202955
0.0111742
-0.00184482
0.0114038
-0.00126268
0.0109501
-0.00043409
0.0101939
0.000513012
0.00929362
0.00147026
0.00829357
0.00234027
0.00717692
0.00302925
0.00589281
0.00344196
0.00436977
0.00347956
0.00251998
0.0030424
0.000237695
0.00204471
-0.00260855
0.000459195
-0.00618507
-0.0015688
-0.010679
-0.00350635
-0.0161269
-0.0042578
-0.0216949
-0.00268848
-0.0238827
-0.0145782
-0.00134778
0.00615029
-0.002415
0.0105136
-0.00237754
0.0111368
-0.0014832
0.0105094
-8.86832e-05
0.00955557
0.00155442
0.00855083
0.00327659
0.00757144
0.00495424
0.00661592
0.00648603
0.00564513
0.00777678
0.00460207
0.00872642
0.00342013
0.00922272
0.00202368
0.0091367
0.000323718
0.00832497
-0.00179681
0.00664854
-0.00450864
0.0040583
-0.00808878
0.000849888
-0.0129185
-0.00188032
-0.0189646
-0.00225436
-0.0235087
-0.0168326
-0.00213512
0.0082854
-0.00291978
0.0112982
-0.00168213
0.00989911
0.000543134
0.00828418
0.00312719
0.00697151
0.00577898
0.00589904
0.00834499
0.00500543
0.0107282
0.00423267
0.0128541
0.00351928
0.0146493
0.00280686
0.0160282
0.00204126
0.016884
0.00116789
0.01708
0.000127729
0.0164448
-0.00116167
0.0147635
-0.00282734
0.011802
-0.00512724
0.00746913
-0.00858558
0.00245163
-0.0139471
-0.000881894
-0.0201751
-0.0177145
-0.00248837
0.0107738
-1.29921e-05
0.00882285
0.00417783
0.0057083
0.00832928
0.00413273
0.012126
0.00317479
0.0155364
0.00248859
0.0185609
0.00198095
0.0212045
0.00158913
0.0234632
0.0012605
0.0253141
0.000956013
0.0267098
0.0006455
0.0275733
0.000304449
0.0277921
-9.10429e-05
0.0272069
-0.000576525
0.0255812
-0.00120161
0.0225536
-0.00209961
0.0176224
-0.00365438
0.0104036
-0.00672833
0.00247635
-0.0122479
-0.0152381
0.0107738
0.0195966
0.0253049
0.0294376
0.0326124
0.035101
0.037082
0.0386711
0.0399316
0.0408876
0.0415331
0.0418376
0.0417465
0.04117
0.0399684
0.0378688
0.0342144
0.0274861
0.0152381
)
;

boundaryField
{
    movingWall
    {
        type            calculated;
        value           uniform 0;
    }
    fixedWalls
    {
        type            calculated;
        value           uniform 0;
    }
    frontAndBack
    {
        type            empty;
    }
}


// ************************************************************************* //
