/*--------------------------------*- C++ -*----------------------------------*\
  =========                 |
  \\      /  F ield         | OpenFOAM: The Open Source CFD Toolbox
   \\    /   O peration     | Website:  https://openfoam.org
    \\  /    A nd           | Version:  13
     \\/     M anipulation  |
\*---------------------------------------------------------------------------*/
FoamFile
{
    format      ascii;
    class       surfaceScalarField;
    location    "50";
    object      phi_0;
}
// * * * * * * * * * * * * * * * * * * * * * * * * * * * * * * * * * * * * * //

dimensions      [0 3 -1 0 0 0 0];

internalField   nonuniform List<scalar> 
760
(
4.6849e-06
-4.68558e-06
-3.8871e-05
4.35557e-05
-0.000131827
9.29561e-05
-0.000258192
0.000126367
-0.000401985
0.000143794
-0.000549772
0.000147785
-0.000689622
0.000139851
-0.000809736
0.000120115
-0.000897881
8.81443e-05
-0.000942097
4.42154e-05
-0.000932635
-9.46219e-06
-0.00086475
-6.78863e-05
-0.000741525
-0.000123226
-0.000575767
-0.000165756
-0.000389813
-0.000185954
-0.00021243
-0.000177384
-7.28398e-05
-0.000139591
7.19584e-06
-8.00352e-05
2.28244e-05
-1.56276e-05
2.28241e-05
-4.74211e-05
4.27357e-05
-0.000210458
0.000206594
-0.00047558
0.00035808
-0.000810054
0.00046084
-0.00117942
0.000513163
-0.00155198
0.000520345
-0.00189807
0.000485943
-0.00218864
0.000410683
-0.00239514
0.00029464
-0.0024916
0.000140669
-0.00245869
-4.23685e-05
-0.00228892
-0.00023766
-0.00199161
-0.000420531
-0.00159592
-0.000561447
-0.00115001
-0.000631867
-0.000714934
-0.000612457
-0.000352914
-0.000501612
-0.000111401
-0.000321548
-5.72527e-06
-0.000121303
1.70997e-05
-0.000112431
0.000155168
-0.000407554
0.000501717
-0.000838994
0.00078952
-0.00135738
0.000979229
-0.00191551
0.00107129
-0.00246964
0.00107447
-0.00297823
0.000994533
-0.00340075
0.000833203
-0.00369824
0.000592128
-0.00383623
0.000278656
-0.0037897
-8.88996e-05
-0.00354914
-0.00047822
-0.0031264
-0.000843262
-0.00255865
-0.0011292
-0.00190821
-0.00128231
-0.00125625
-0.00126442
-0.000688851
-0.00106901
-0.000276702
-0.000733694
-5.33291e-05
-0.000344676
-3.62268e-05
-0.000174324
0.000329492
-0.000597019
0.000924413
-0.00118548
0.00137798
-0.0018713
0.00166505
-0.00259608
0.00179607
-0.00330784
0.00178623
-0.00395773
0.00164442
-0.00449824
0.00137372
-0.00488376
0.00097764
-0.00507349
0.000468388
-0.00503652
-0.000125869
-0.00475813
-0.00075661
-0.00424665
-0.00135473
-0.00353941
-0.00183644
-0.00270541
-0.0021163
-0.00184157
-0.00212826
-0.00105891
-0.00185167
-0.000458598
-0.00133401
-0.000103678
-0.000699593
-0.000139903
-0.00022941
0.000558902
-0.000767377
0.00146238
-0.00149798
0.00210858
-0.00233433
0.0025014
-0.00320836
0.0026701
-0.00406266
0.00264051
-0.00484457
0.00242633
-0.00550302
0.00203217
-0.00598813
0.00146275
-0.00625338
0.00073363
-0.00625996
-0.000119286
-0.00598314
-0.00103342
-0.00542051
-0.00191736
-0.00460115
-0.0026558
-0.00359362
-0.00312383
-0.00250775
-0.00321412
-0.00148395
-0.00287546
-0.000665431
-0.00215253
-0.00015856
-0.00120646
-0.000298464
-0.000275799
0.000834701
-0.000911874
0.00209845
-0.00176446
0.00296116
-0.00273103
0.00346797
-0.00373608
0.00367515
-0.00471941
0.00362384
-0.00562761
0.00333452
-0.00640889
0.00281345
-0.00701109
0.00206496
-0.00738227
0.00110481
-0.00747381
-2.7741e-05
-0.00724621
-0.00126102
-0.00667882
-0.00248475
-0.00578299
-0.00355164
-0.00461721
-0.00428961
-0.00329853
-0.0045328
-0.00199946
-0.00417453
-0.000918814
-0.00323318
-0.000225508
-0.00189977
-0.000523974
-0.000311563
0.00114626
-0.00102419
0.00281108
-0.00197313
0.00391009
-0.00304411
0.00453896
-0.00415692
0.00478795
-0.00525118
0.0047181
-0.00627555
0.00435889
-0.00718041
0.00371831
-0.00791371
0.00279827
-0.00841946
0.00161056
-0.00863869
0.00019149
-0.00851441
-0.00138531
-0.00800128
-0.00299787
-0.00708266
-0.00447026
-0.00579375
-0.00557851
-0.00424635
-0.0060802
-0.002641
-0.00577988
-0.00124419
-0.00462998
-0.000313965
-0.00282999
-0.000837939
-0.000334779
0.00148104
-0.00109822
0.00357451
-0.00211205
0.00492392
-0.00325441
0.00568132
-0.00444304
0.00597658
-0.00561986
0.00589492
-0.00673835
0.00547737
-0.00775418
0.00473414
-0.00861882
0.0036629
-0.00927543
0.00226718
-0.00965737
0.000573428
-0.00969052
-0.00135216
-0.00930184
-0.00338655
-0.00843753
-0.00533458
-0.00709315
-0.00692288
-0.00535407
-0.00781928
-0.00343231
-0.00770165
-0.00166579
-0.0063965
-0.000434264
-0.00406151
-0.0012722
-0.000344199
0.00182524
-0.00112951
0.00435983
-0.00217136
0.00596577
-0.00334392
0.00685388
-0.00456518
0.00719784
-0.0057815
0.00711124
-0.00695382
0.00664969
-0.00804657
0.00582689
-0.00901921
0.00463554
-0.00981961
0.00306758
-0.0103795
0.00113332
-0.0106131
-0.00111853
-0.010422
-0.00357767
-0.00971037
-0.00604622
-0.00841803
-0.00821522
-0.00657513
-0.00966219
-0.00437155
-0.00990523
-0.00220148
-0.00856657
-0.000597234
-0.00566576
-0.00186943
-0.000340357
0.0021656
-0.001118
0.00513747
-0.00214743
0.0069952
-0.00330141
0.00800786
-0.00450001
0.00839644
-0.00569597
0.0083072
-0.00686021
0.00781392
-0.0079695
0.00693619
-0.00899649
0.00566252
-0.009901
0.00397209
-0.0106225
0.00185481
-0.011074
-0.000667068
-0.011141
-0.0035106
-0.0106891
-0.00649818
-0.00959211
-0.00931216
-0.00779463
-0.0114597
-0.00541407
-0.0122858
-0.00285496
-0.0111257
-0.000813594
-0.00770712
-0.00268303
-0.000327045
0.00249264
-0.00107146
0.00588188
-0.00204816
0.00797191
-0.00312956
0.00908926
-0.00423964
0.0095065
-0.00533971
0.00940727
-0.00641324
0.00888745
-0.00745281
0.00797576
-0.00844926
0.00665898
-0.00938195
0.00490478
-0.010209
0.00268189
-0.0108558
-2.02696e-05
-0.0112092
-0.00315718
-0.0111091
-0.00659832
-0.0103668
-0.0100544
-0.00881952
-0.013007
-0.00645416
-0.0146511
-0.00360336
-0.0139765
-0.00109225
-0.0102182
-0.00377527
-0.000313228
0.00280587
-0.00100968
0.00657833
-0.00189875
0.00886098
-0.00285209
0.0100426
-0.00380055
0.010455
-0.00471767
0.0103244
-0.00560266
0.00977243
-0.00646691
0.00884001
-0.00732333
0.0075154
-0.00817665
0.00575811
-0.0090127
0.00351794
-0.00978649
0.00075352
-0.0104022
-0.00254147
-0.0107016
-0.00629896
-0.0104538
-0.0103022
-0.0093882
-0.0140726
-0.00731353
-0.0167258
-0.00438098
-0.016909
-0.00143631
-0.0131629
-0.00521158
-0.000315763
0.00312164
-0.00096916
0.00723173
-0.00174655
0.00963837
-0.00251815
0.0108142
-0.00322818
0.011165
-0.00386914
0.0109653
-0.00446061
0.0103639
-0.00503551
0.0094149
-0.0056306
0.00811049
-0.00627849
0.00640599
-0.00699833
0.00423777
-0.0077828
0.00153799
-0.00857748
-0.0017468
-0.00925416
-0.00562229
-0.00957934
-0.00997703
-0.00920511
-0.0144468
-0.0077463
-0.0181846
-0.00506355
-0.0195918
-0.00183515
-0.0163913
-0.00704673
-0.000363844
0.00348548
-0.00100842
0.0078763
-0.0016633
0.0102932
-0.00220022
0.0113511
-0.00259096
0.0115557
-0.00285896
0.0112333
-0.00305104
0.010556
-0.00322399
0.00958786
-0.00343804
0.00832454
-0.00375201
0.00671996
-0.00421743
0.0047032
-0.00486865
0.00218922
-0.0057046
-0.00091084
-0.00665696
-0.00466994
-0.00753947
-0.0090945
-0.00798932
-0.0139969
-0.00746274
-0.0187112
-0.00545927
-0.0215952
-0.00225026
-0.0196003
-0.00929699
-0.000505783
0.00399126
-0.00121162
0.00858214
-0.00173767
0.0108193
-0.00197449
0.0115879
-0.00195038
0.0115316
-0.001739
0.011022
-0.00142329
0.0102403
-0.00108596
0.00925052
-0.000808215
0.00804679
-0.000670099
0.00658184
-0.000749562
0.00478266
-0.00111823
0.00255789
-0.00182999
-0.000199077
-0.00289411
-0.00360582
-0.00421842
-0.00777019
-0.00550873
-0.0127066
-0.00615587
-0.0180641
-0.00530519
-0.0224459
-0.00259251
-0.022313
-0.0118895
-0.000811242
0.0048025
-0.00167528
0.00944619
-0.00202994
0.0111739
-0.0018454
0.0114034
-0.00126342
0.0109496
-0.000434968
0.0101935
0.000512036
0.00929327
0.00146922
0.00829333
0.00233921
0.00717681
0.0030282
0.00589284
0.00344095
0.00436992
0.00347861
0.00252023
0.00304152
0.000238006
0.00204392
-0.00260822
0.000458493
-0.00618477
-0.00156939
-0.0106788
-0.00350678
-0.0161267
-0.00425804
-0.0216946
-0.00268856
-0.0238825
-0.0145781
-0.00134783
0.00615033
-0.00241517
0.0105135
-0.00237786
0.0111366
-0.00148369
0.0105092
-8.93337e-05
0.00955529
0.00155363
0.00855054
0.00327571
0.00757119
0.0049533
0.00661574
0.00648507
0.00564504
0.00777584
0.00460207
0.00872553
0.00342023
0.0092219
0.00202386
0.00913597
0.000323941
0.00832433
-0.00179657
0.00664798
-0.00450843
0.00405784
-0.00808862
0.00084953
-0.0129183
-0.00188055
-0.0189646
-0.00225445
-0.0235086
-0.0168325
-0.00213512
0.00828545
-0.00291985
0.0112983
-0.0016823
0.00989908
0.000542831
0.00828409
0.00312675
0.00697137
0.00577842
0.00589888
0.00834433
0.00500527
0.0107275
0.00423255
0.0128533
0.00351921
0.0146486
0.00280685
0.0160275
0.00204132
0.0168833
0.001168
0.0170794
0.00012786
0.0164444
-0.00116153
0.0147632
-0.00282722
0.0118017
-0.00512716
0.00746891
-0.00858554
0.00245148
-0.0139471
-0.000881966
-0.0201751
-0.0177145
-0.00248834
0.0107738
-1.29701e-05
0.00882287
0.00417781
0.0057083
0.00832919
0.0041327
0.0121258
0.00317474
0.0155362
0.00248853
0.0185605
0.00198089
0.021204
0.00158908
0.0234627
0.00126048
0.0253136
0.000956018
0.0267094
0.000645528
0.0275729
0.000304493
0.0277917
-9.09901e-05
0.0272067
-0.000576475
0.025581
-0.00120158
0.0225534
-0.00209959
0.0176223
-0.00365438
0.0104035
-0.00672834
0.00247632
-0.0122479
-0.0152381
0.0107738
0.0195967
0.025305
0.0294377
0.0326124
0.0351009
0.0370818
0.0386709
0.0399314
0.0408874
0.041533
0.0418374
0.0417465
0.04117
0.0399684
0.0378688
0.0342144
0.0274861
0.0152381
)
;

boundaryField
{
    movingWall
    {
        type            calculated;
        value           uniform 0;
    }
    fixedWalls
    {
        type            calculated;
        value           uniform 0;
    }
    frontAndBack
    {
        type            empty;
    }
}


// ************************************************************************* //
