/*--------------------------------*- C++ -*----------------------------------*\
  =========                 |
  \\      /  F ield         | OpenFOAM: The Open Source CFD Toolbox
   \\    /   O peration     | Website:  https://openfoam.org
    \\  /    A nd           | Version:  13
     \\/     M anipulation  |
\*---------------------------------------------------------------------------*/
FoamFile
{
    format      ascii;
    class       volVectorField;
    location    "50";
    object      U;
}
// * * * * * * * * * * * * * * * * * * * * * * * * * * * * * * * * * * * * * //

dimensions      [0 1 -1 0 0 0 0];

internalField   nonuniform List<vector> 
400
(
(0.000183176 -0.000188315 0)
(-0.000137703 2.9059e-05 0)
(-0.00153522 0.000268114 0)
(-0.0037921 0.00041951 0)
(-0.00655892 0.000499573 0)
(-0.0095335 0.000530225 0)
(-0.0124651 0.000521237 0)
(-0.0151194 0.000471481 0)
(-0.0172547 0.000374095 0)
(-0.0186232 0.000223616 0)
(-0.0189982 2.32695e-05 0)
(-0.0182242 -0.000209467 0)
(-0.0162761 -0.000440453 0)
(-0.0133107 -0.000622897 0)
(-0.00968646 -0.000707982 0)
(-0.0059325 -0.000660691 0)
(-0.00265743 -0.000474957 0)
(-0.000404256 -0.000181583 0)
(0.000543203 0.000138114 0)
(0.000310661 0.000303658 0)
(-4.67936e-05 0.000134205 0)
(-0.00208404 0.00193408 0)
(-0.00644663 0.00376642 0)
(-0.01261 0.00503343 0)
(-0.0198133 0.00570061 0)
(-0.0273836 0.00584466 0)
(-0.0347142 0.00551616 0)
(-0.041221 0.00472126 0)
(-0.0463219 0.00344997 0)
(-0.0494568 0.00172183 0)
(-0.0501513 -0.000369846 0)
(-0.0481151 -0.00262951 0)
(-0.04335 -0.00475865 0)
(-0.0362374 -0.00639276 0)
(-0.0275658 -0.00717806 0)
(-0.0184657 -0.00687719 0)
(-0.0102307 -0.00547599 0)
(-0.00403289 -0.0032585 0)
(-0.000573966 -0.000859406 0)
(0.000222784 0.000592477 0)
(-0.000353564 0.00171832 0)
(-0.00449688 0.00647708 0)
(-0.0118969 0.0106944 0)
(-0.021649 0.0135464 0)
(-0.0326517 0.0149838 0)
(-0.0439904 0.0151347 0)
(-0.0548241 0.0140882 0)
(-0.0643335 0.0118663 0)
(-0.0717138 0.00848231 0)
(-0.0762107 0.00403158 0)
(-0.0772032 -0.00122376 0)
(-0.0743199 -0.00680486 0)
(-0.0675638 -0.0120228 0)
(-0.0574181 -0.0160579 0)
(-0.0448913 -0.0181191 0)
(-0.0314609 -0.0176656 0)
(-0.0188731 -0.0146439 0)
(-0.00879794 -0.00966073 0)
(-0.00241852 -0.00405577 0)
(3.61305e-05 2.90621e-05 0)
(-0.000631707 0.00460344 0)
(-0.00682817 0.013703 0)
(-0.0171422 0.0209671 0)
(-0.0302214 0.0256858 0)
(-0.0446214 0.0279246 0)
(-0.0592464 0.0279029 0)
(-0.0731089 0.02576 0)
(-0.0852479 0.0215421 0)
(-0.0947215 0.0153014 0)
(-0.100645 0.00723546 0)
(-0.102275 -0.00218827 0)
(-0.0991275 -0.0121597 0)
(-0.0911115 -0.0215331 0)
(-0.0786658 -0.0289404 0)
(-0.0628542 -0.0330266 0)
(-0.0453687 -0.0328031 0)
(-0.0283658 -0.028056 0)
(-0.0140984 -0.0196731 0)
(-0.00443516 -0.0097548 0)
(-0.000124413 -0.00151178 0)
(-0.000871412 0.00867328 0)
(-0.0089135 0.0233832 0)
(-0.0218723 0.0342517 0)
(-0.0379554 0.0410095 0)
(-0.0553976 0.0440107 0)
(-0.0729668 0.0436428 0)
(-0.0895959 0.0401226 0)
(-0.104256 0.0335265 0)
(-0.115929 0.0239427 0)
(-0.123636 0.0116598 0)
(-0.126497 -0.00266653 0)
(-0.123847 -0.0179098 0)
(-0.115379 -0.0324591 0)
(-0.101323 -0.0443355 0)
(-0.0826283 -0.0514778 0)
(-0.0610881 -0.0522277 0)
(-0.0392747 -0.045962 0)
(-0.020193 -0.0336785 0)
(-0.00668931 -0.018238 0)
(-0.000270902 -0.00408841 0)
(-0.00106883 0.0137664 0)
(-0.0106705 0.0352142 0)
(-0.0258929 0.0501937 0)
(-0.0445637 0.0591497 0)
(-0.0646496 0.0628992 0)
(-0.0848309 0.0620901 0)
(-0.104019 0.0570539 0)
(-0.121178 0.0479002 0)
(-0.13527 0.0347294 0)
(-0.145242 0.0178734 0)
(-0.150069 -0.00189149 0)
(-0.148837 -0.0231918 0)
(-0.140897 -0.0439931 0)
(-0.126095 -0.061669 0)
(-0.105067 -0.0732889 0)
(-0.0795305 -0.0762123 0)
(-0.0524232 -0.0689993 0)
(-0.0276653 -0.0524177 0)
(-0.00946237 -0.0300334 0)
(-0.000446305 -0.00785134 0)
(-0.00121626 0.0196887 0)
(-0.0120236 0.0488094 0)
(-0.0290246 0.0683417 0)
(-0.0497529 0.0796605 0)
(-0.0719781 0.0842006 0)
(-0.0943436 0.082963 0)
(-0.115794 0.0764367 0)
(-0.135346 0.0647648 0)
(-0.151996 0.0480211 0)
(-0.164659 0.0265041 0)
(-0.172173 0.00100181 0)
(-0.173347 -0.0269896 0)
(-0.167102 -0.0551123 0)
(-0.152734 -0.0801113 0)
(-0.130322 -0.0980452 0)
(-0.10123 -0.104921 0)
(-0.0685516 -0.0978967 0)
(-0.0371762 -0.0769066 0)
(-0.0131156 -0.0459923 0)
(-0.000702157 -0.0131303 0)
(-0.00130494 0.026207 0)
(-0.0129007 0.0636944 0)
(-0.031094 0.0881264 0)
(-0.0532178 0.101961 0)
(-0.0769193 0.107378 0)
(-0.100853 0.105821 0)
(-0.124047 0.0979818 0)
(-0.145631 0.0840409 0)
(-0.1647 0.0640031 0)
(-0.180207 0.0380436 0)
(-0.190916 0.00682613 0)
(-0.195391 -0.0282014 0)
(-0.192108 -0.0645304 0)
(-0.179698 -0.0983951 0)
(-0.157431 -0.124799 0)
(-0.125928 -0.138055 0)
(-0.0879999 -0.133178 0)
(-0.0492996 -0.108295 0)
(-0.0180437 -0.0672858 0)
(-0.00110175 -0.0204593 0)
(-0.00133017 0.0330534 0)
(-0.0132551 0.0793155 0)
(-0.0319706 0.108861 0)
(-0.0546935 0.125312 0)
(-0.0790155 0.131691 0)
(-0.103643 0.129967 0)
(-0.127733 0.121091 0)
(-0.150588 0.105295 0)
(-0.17148 0.0824849 0)
(-0.189503 0.0526312 0)
(-0.203461 0.0161328 0)
(-0.211802 -0.025809 0)
(-0.212641 -0.0707836 0)
(-0.203939 -0.114768 0)
(-0.183967 -0.151853 0)
(-0.152151 -0.174476 0)
(-0.11034 -0.174751 0)
(-0.0643312 -0.147585 0)
(-0.0246451 -0.0953254 0)
(-0.00172832 -0.0305894 0)
(-0.0012987 0.0399481 0)
(-0.0131042 0.095074 0)
(-0.0316342 0.12976 0)
(-0.054051 0.148809 0)
(-0.0779427 0.156155 0)
(-0.102102 0.154378 0)
(-0.125856 0.144754 0)
(-0.148739 0.127603 0)
(-0.170287 0.102729 0)
(-0.189855 0.0698462 0)
(-0.206459 0.0289757 0)
(-0.21863 -0.0191267 0)
(-0.224337 -0.0724491 0)
(-0.221022 -0.127108 0)
(-0.205917 -0.176681 0)
(-0.176877 -0.211883 0)
(-0.133967 -0.221379 0)
(-0.0820121 -0.195156 0)
(-0.0332658 -0.131572 0)
(-0.00269583 -0.0444963 0)
(-0.00123858 0.0466488 0)
(-0.0125809 0.110396 0)
(-0.0302641 0.15 0)
(-0.051421 0.171412 0)
(-0.0736733 0.179552 0)
(-0.0959395 0.177698 0)
(-0.117762 0.167526 0)
(-0.138965 0.149503 0)
(-0.159428 0.123365 0)
(-0.178893 0.088568 0)
(-0.196767 0.044699 0)
(-0.211916 -0.00808633 0)
(-0.222481 -0.0684949 0)
(-0.225706 -0.133261 0)
(-0.217994 -0.196117 0)
(-0.195504 -0.246682 0)
(-0.155766 -0.270181 0)
(-0.101153 -0.250103 0)
(-0.0440723 -0.17717 0)
(-0.00415871 -0.0633684 0)
(-0.0012126 0.0530325 0)
(-0.0119982 0.124845 0)
(-0.0283389 0.168802 0)
(-0.0473201 0.192011 0)
(-0.0666321 0.20048 0)
(-0.085389 0.198285 0)
(-0.103418 0.187583 0)
(-0.120891 0.169055 0)
(-0.138097 0.142432 0)
(-0.15525 0.106963 0)
(-0.1723 0.061812 0)
(-0.188701 0.00646613 0)
(-0.2031 -0.0587145 0)
(-0.213 -0.131592 0)
(-0.214487 -0.206897 0)
(-0.202299 -0.274278 0)
(-0.171075 -0.316405 0)
(-0.119257 -0.309507 0)
(-0.0568052 -0.232335 0)
(-0.0063142 -0.0885458 0)
(-0.00133971 0.0592254 0)
(-0.0119322 0.138283 0)
(-0.0267361 0.185552 0)
(-0.0427438 0.209503 0)
(-0.0577826 0.217432 0)
(-0.0713062 0.214322 0)
(-0.0835445 0.202872 0)
(-0.0950871 0.184027 0)
(-0.106671 0.157579 0)
(-0.119024 0.122652 0)
(-0.1327 0.0780717 0)
(-0.147873 0.0227066 0)
(-0.164002 -0.0440759 0)
(-0.179369 -0.121626 0)
(-0.190453 -0.206503 0)
(-0.19135 -0.289871 0)
(-0.174122 -0.353736 0)
(-0.132327 -0.367917 0)
(-0.0703977 -0.295471 0)
(-0.00938364 -0.121339 0)
(-0.00183561 0.0658004 0)
(-0.0133407 0.151065 0)
(-0.0268164 0.199904 0)
(-0.0391677 0.222843 0)
(-0.0485433 0.228852 0)
(-0.0550186 0.223919 0)
(-0.0594199 0.211273 0)
(-0.0628436 0.192119 0)
(-0.0664881 0.166338 0)
(-0.0715626 0.133009 0)
(-0.0791935 0.0907493 0)
(-0.0902803 0.0379681 0)
(-0.105234 -0.0268409 0)
(-0.123505 -0.104546 0)
(-0.142768 -0.194083 0)
(-0.157666 -0.289641 0)
(-0.158836 -0.375295 0)
(-0.135028 -0.417414 0)
(-0.082498 -0.36213 0)
(-0.0135198 -0.162568 0)
(-0.00307286 0.0740707 0)
(-0.0177117 0.164242 0)
(-0.0304063 0.211777 0)
(-0.0382792 0.230967 0)
(-0.040287 0.233078 0)
(-0.037635 0.225112 0)
(-0.0320281 0.210679 0)
(-0.025167 0.191121 0)
(-0.0186976 0.166365 0)
(-0.0142296 0.13548 0)
(-0.0133423 0.0970006 0)
(-0.0175436 0.0491025 0)
(-0.0281348 -0.0102765 0)
(-0.0458811 -0.0832048 0)
(-0.0702476 -0.170995 0)
(-0.0977613 -0.271894 0)
(-0.119558 -0.375076 0)
(-0.121016 -0.448511 0)
(-0.0889657 -0.424361 0)
(-0.0184963 -0.211753 0)
(-0.00556929 0.0865863 0)
(-0.0270512 0.17965 0)
(-0.0392439 0.220997 0)
(-0.0407512 0.232326 0)
(-0.0325787 0.227958 0)
(-0.0179129 0.215599 0)
(0.00033487 0.198833 0)
(0.0198 0.178854 0)
(0.0384549 0.155492 0)
(0.0544191 0.127785 0)
(0.0658297 0.0942759 0)
(0.0707681 0.0531308 0)
(0.067252 0.00213297 0)
(0.0533604 -0.0613859 0)
(0.0276955 -0.140474 0)
(-0.00912888 -0.237498 0)
(-0.0510592 -0.349174 0)
(-0.0830187 -0.451602 0)
(-0.0833812 -0.471171 0)
(-0.0231109 -0.266763 0)
(-0.00989139 0.108707 0)
(-0.0429202 0.199623 0)
(-0.0520665 0.225839 0)
(-0.0415128 0.223425 0)
(-0.0174746 0.209733 0)
(0.0137711 0.19198 0)
(0.0480422 0.172859 0)
(0.0825037 0.152937 0)
(0.114989 0.131708 0)
(0.143597 0.108113 0)
(0.166426 0.0807655 0)
(0.181401 0.048007 0)
(0.186155 0.00783374 0)
(0.177986 -0.042355 0)
(0.153952 -0.106244 0)
(0.111677 -0.189134 0)
(0.052467 -0.296008 0)
(-0.0124111 -0.417753 0)
(-0.0566976 -0.488972 0)
(-0.0246486 -0.324061 0)
(-0.0178134 0.151659 0)
(-0.0612752 0.223635 0)
(-0.0521937 0.217704 0)
(-0.0142089 0.195023 0)
(0.0356506 0.171174 0)
(0.0889286 0.149202 0)
(0.141632 0.1295 0)
(0.19147 0.111479 0)
(0.236842 0.0941018 0)
(0.276346 0.0761909 0)
(0.308452 0.0565159 0)
(0.331292 0.0337573 0)
(0.342489 0.00640136 0)
(0.339051 -0.0275331 0)
(0.317177 -0.0712061 0)
(0.272286 -0.130558 0)
(0.200185 -0.216501 0)
(0.103035 -0.338358 0)
(0.00438797 -0.456791 0)
(-0.015956 -0.369334 0)
(-0.0242274 0.208257 0)
(-0.0379208 0.230349 0)
(0.0372774 0.176539 0)
(0.125089 0.136882 0)
(0.205905 0.109106 0)
(0.278136 0.0882704 0)
(0.342439 0.0721747 0)
(0.399096 0.0592302 0)
(0.448147 0.0480573 0)
(0.48936 0.0375251 0)
(0.522058 0.0266968 0)
(0.545008 0.014727 0)
(0.556332 0.000744369 0)
(0.553381 -0.016322 0)
(0.532347 -0.0383112 0)
(0.487767 -0.0691651 0)
(0.411156 -0.119104 0)
(0.290899 -0.20935 0)
(0.13314 -0.338288 0)
(0.0387791 -0.340367 0)
(0.241884 0.10913 0)
(0.313446 0.0971128 0)
(0.444308 0.0569655 0)
(0.549623 0.0351082 0)
(0.624072 0.0237399 0)
(0.67964 0.0167106 0)
(0.723541 0.0119802 0)
(0.758869 0.00869313 0)
(0.78717 0.0062527 0)
(0.809239 0.00422835 0)
(0.825256 0.00232608 0)
(0.834852 0.000337928 0)
(0.837166 -0.00191227 0)
(0.830781 -0.00459307 0)
(0.8134 -0.00802981 0)
(0.781132 -0.0128841 0)
(0.725686 -0.0212269 0)
(0.62986 -0.0380901 0)
(0.459268 -0.0855474 0)
(0.304895 -0.125697 0)
)
;

boundaryField
{
    movingWall
    {
        type            fixedValue;
        value           uniform (1 0 0);
    }
    fixedWalls
    {
        type            fixedValue;
        value           uniform (0 0 0);
    }
    frontAndBack
    {
        type            empty;
    }
}


// ************************************************************************* //
