/*--------------------------------*- C++ -*----------------------------------*\
  =========                 |
  \\      /  F ield         | OpenFOAM: The Open Source CFD Toolbox
   \\    /   O peration     | Website:  https://openfoam.org
    \\  /    A nd           | Version:  13
     \\/     M anipulation  |
\*---------------------------------------------------------------------------*/
FoamFile
{
    format      ascii;
    class       volScalarField;
    location    "5";
    object      p;
}
// * * * * * * * * * * * * * * * * * * * * * * * * * * * * * * * * * * * * * //

dimensions      [0 2 -2 0 0 0 0];

internalField   nonuniform List<scalar> 
400
(
2.31449e-09
-0.000324091
-0.000638201
-0.000759071
-0.000616208
-0.000196672
0.00048918
0.00141822
0.00255643
0.00385737
0.00526002
0.00668793
0.00805124
0.00925264
0.0101975
0.0108089
0.0110463
0.0109283
0.0105669
0.0101959
0.000332722
-4.20554e-06
-0.000258524
-0.000339838
-0.000191075
0.000199904
0.000827596
0.00167531
0.00271545
0.00390751
0.00519628
0.00651154
0.00777054
0.00888388
0.0097655
0.0103464
0.0105913
0.010517
0.0102207
0.00983808
0.000662622
0.000223161
-5.38335e-05
-0.000141034
-5.20927e-06
0.000356852
0.000940116
0.00173252
0.00271247
0.00384533
0.00508085
0.00635236
0.0075791
0.00867179
0.00954266
0.0101191
0.0103601
0.0102726
0.009937
0.00943481
0.000795442
0.00024449
-8.66316e-05
-0.000204287
-9.20998e-05
0.000243455
0.000796304
0.00155832
0.00251389
0.00363429
0.00487354
0.00616655
0.00743038
0.00856945
0.00948565
0.0100932
0.0103369
0.0102114
0.00979333
0.00914971
0.000625513
-3.76067e-05
-0.000435393
-0.000595506
-0.00051136
-0.000196802
0.000341647
0.00110012
0.00206936
0.00322675
0.00453022
0.00591449
0.00729101
0.00855193
0.00958055
0.0102683
0.010538
0.01037
0.00984786
0.00904274
8.76423e-05
-0.000690068
-0.00116066
-0.00136834
-0.00131293
-0.00101368
-0.000476087
0.000301585
0.00131782
0.0025574
0.00398301
0.00552896
0.00709897
0.00856797
0.00979235
0.0106297
0.0109697
0.010772
0.0101315
0.00913318
-0.000875464
-0.00177583
-0.00232544
-0.00258443
-0.00255886
-0.00227258
-0.00172853
-0.000917109
0.000170512
0.00152944
0.00312996
0.00490785
0.00675964
0.00853969
0.010069
0.0111572
0.011643
0.0114503
0.0106819
0.00944189
-0.00232741
-0.00336487
-0.00400226
-0.00431821
-0.00432754
-0.00405927
-0.00351206
-0.00266549
-0.00149648
5.14787e-06
0.00182285
0.00389894
0.00612744
0.00834223
0.0103216
0.0118097
0.0125674
0.0124529
0.0115606
0.0100148
-0.00434711
-0.00554157
-0.00627824
-0.00665993
-0.00671556
-0.00648101
-0.00594887
-0.00508427
-0.00384494
-0.00219912
-0.000141529
0.00228596
0.00498604
0.0077789
0.0103976
0.0125025
0.0137382
0.0138459
0.0128701
0.0109485
-0.00703652
-0.00841112
-0.00925917
-0.00971717
-0.00983685
-0.00966376
-0.00918246
-0.00833959
-0.00706833
-0.00530804
-0.00302143
-0.000215436
0.00303629
0.0065597
0.0100523
0.0130779
0.0151178
0.0157147
0.0147774
0.0124288
-0.0105306
-0.0121072
-0.0130735
-0.0136144
-0.013818
-0.0137432
-0.0133642
-0.012605
-0.0113694
-0.00956091
-0.00709774
-0.00393408
-8.99437e-05
0.0043018
0.00893419
0.0132813
0.0166162
0.0181678
0.0175506
0.014799
-0.0150142
-0.0168038
-0.0178767
-0.0184892
-0.0187869
-0.0188457
-0.0186253
-0.0180233
-0.016912
-0.0151544
-0.0126132
-0.00917315
-0.00476122
0.000586006
0.00662046
0.0127735
0.0180927
0.0213567
0.0216239
0.0186793
-0.0207549
-0.0227352
-0.023856
-0.0244825
-0.0248493
-0.0250511
-0.0250253
-0.0246399
-0.0237363
-0.0221392
-0.0196527
-0.0160679
-0.0111909
-0.00488665
0.0027563
0.011237
0.0194307
0.0255492
0.0277199
0.0251802
-0.0281704
-0.0302323
-0.031233
-0.0317122
-0.0320411
-0.0323258
-0.0324667
-0.0322977
-0.0316343
-0.03027
-0.0279543
-0.024377
-0.0191884
-0.0120155
-0.00265678
0.00864077
0.0207557
0.0313204
0.0370797
0.0362702
-0.0379656
-0.0397814
-0.0402499
-0.0402071
-0.0402271
-0.0403995
-0.040559
-0.0404958
-0.0400028
-0.0388502
-0.0367411
-0.0332657
-0.0278891
-0.0199642
-0.008866
0.00565978
0.0228316
0.0399143
0.0518608
0.0553488
-0.0513921
-0.0521088
-0.0510901
-0.0497293
-0.048885
-0.0485479
-0.0484245
-0.0482332
-0.0477314
-0.0466565
-0.0446604
-0.0412365
-0.0356702
-0.027007
-0.0141115
0.00402834
0.0274653
0.053679
0.0756763
0.087971
-0.0708181
-0.0682565
-0.0635691
-0.0593313
-0.0566838
-0.0552643
-0.0544949
-0.0539342
-0.0532501
-0.0521015
-0.0500612
-0.0465196
-0.0405742
-0.0309679
-0.0160239
0.00623998
0.037307
0.0760176
0.113982
0.142766
-0.102696
-0.0897725
-0.0762104
-0.066431
-0.0608894
-0.0580161
-0.0565521
-0.055705
-0.0549401
-0.0537784
-0.0516821
-0.0479173
-0.0414056
-0.0305813
-0.013218
0.0137516
0.0539055
0.109494
0.173549
0.235217
-0.173901
-0.118198
-0.084501
-0.0663827
-0.0579477
-0.0543217
-0.052981
-0.0525834
-0.0523257
-0.0515975
-0.0497702
-0.0460206
-0.0391439
-0.0273264
-0.00781369
0.0236285
0.0733147
0.150141
0.258355
0.403957
-0.352101
-0.156673
-0.0801156
-0.0552341
-0.0464324
-0.0438605
-0.0440163
-0.0451493
-0.0462699
-0.0467075
-0.0458256
-0.0428059
-0.0364522
-0.0248653
-0.00496848
0.0285847
0.0858702
0.189655
0.376345
0.689595
)
;

boundaryField
{
    movingWall
    {
        type            zeroGradient;
    }
    fixedWalls
    {
        type            zeroGradient;
    }
    frontAndBack
    {
        type            empty;
    }
}


// ************************************************************************* //
