/*--------------------------------*- C++ -*----------------------------------*\
  =========                 |
  \\      /  F ield         | OpenFOAM: The Open Source CFD Toolbox
   \\    /   O peration     | Website:  https://openfoam.org
    \\  /    A nd           | Version:  13
     \\/     M anipulation  |
\*---------------------------------------------------------------------------*/
FoamFile
{
    format      ascii;
    class       surfaceScalarField;
    location    "5";
    object      phi;
}
// * * * * * * * * * * * * * * * * * * * * * * * * * * * * * * * * * * * * * //

dimensions      [0 3 -1 0 0 0 0];

internalField   nonuniform List<scalar> 
760
(
-4.52272e-06
4.5224e-06
-4.36846e-05
3.9162e-05
-0.000113383
6.96988e-05
-0.000200736
8.73533e-05
-0.000293717
9.29808e-05
-0.000383243
8.95255e-05
-0.00046273
7.94874e-05
-0.000527204
6.44742e-05
-0.000572608
4.5404e-05
-0.000595522
2.29151e-05
-0.000593253
-2.2687e-06
-0.000564208
-2.90456e-05
-0.000508546
-5.56619e-05
-0.000428892
-7.96534e-05
-0.000331147
-9.77453e-05
-0.000225108
-0.000106039
-0.000124523
-0.000100585
-4.58712e-05
-7.8653e-05
-3.92155e-06
-4.19497e-05
-3.92087e-06
-4.06978e-05
4.52203e-05
-0.000153201
0.000151666
-0.000327273
0.000243772
-0.000536756
0.000296836
-0.000756997
0.000313222
-0.000968183
0.000300712
-0.00115514
0.000266448
-0.00130601
0.000215344
-0.00141109
0.000150482
-0.00146236
7.41844e-05
-0.00145374
-1.08818e-05
-0.00138203
-0.00010076
-0.0012482
-0.000189491
-0.00105913
-0.000268719
-0.000829122
-0.000327757
-0.000580741
-0.00035442
-0.000344148
-0.000337179
-0.000153469
-0.000269334
-3.87979e-05
-0.000156622
-4.27174e-05
-7.68406e-05
0.000122061
-0.000263357
0.000338183
-0.000527929
0.000508343
-0.000834542
0.000603449
-0.00115092
0.000629603
-0.00145101
0.000600799
-0.00171452
0.000529955
-0.00192547
0.000426296
-0.00207092
0.000295933
-0.0021404
0.000143662
-0.00212618
-2.51e-05
-0.00202435
-0.000202591
-0.00183645
-0.000377387
-0.00157156
-0.000533613
-0.00124823
-0.000651087
-0.000895682
-0.000706967
-0.000553041
-0.000679819
-0.000265235
-0.00055714
-7.43168e-05
-0.000347544
-0.000117033
-0.000106556
0.000228617
-0.000356418
0.000588045
-0.000698083
0.000850009
-0.00108501
0.000990372
-0.0014788
0.00102339
-0.00184939
0.000971389
-0.00217356
0.000854133
-0.00243301
0.000685738
-0.00261273
0.000475658
-0.0027004
0.000231332
-0.00268658
-3.89237e-05
-0.00256591
-0.000323264
-0.00233908
-0.000604212
-0.00201545
-0.000857239
-0.00161573
-0.00105081
-0.0011739
-0.0011488
-0.000737032
-0.00111669
-0.000361306
-0.000932865
-0.000103409
-0.00060544
-0.000220442
-0.000131181
0.000359798
-0.000436171
0.000893035
-0.000846239
0.00126008
-0.00130463
0.00144876
-0.00176722
0.00148598
-0.00220086
0.00140503
-0.00258056
0.00123382
-0.0028866
0.000991781
-0.00310255
0.000691611
-0.00321424
0.000343016
-0.00320987
-4.32887e-05
-0.00308139
-0.000451745
-0.00282681
-0.000858788
-0.00245371
-0.00123034
-0.00198319
-0.00152134
-0.0014533
-0.00167869
-0.000920147
-0.00164984
-0.000454159
-0.00139885
-0.000129975
-0.000929623
-0.000350417
-0.000153996
0.000513794
-0.000510943
0.00124998
-0.000986681
0.00173581
-0.00151444
0.00197652
-0.00204455
0.00201608
-0.00254124
0.00190172
-0.0029784
0.00167099
-0.0033356
0.00134898
-0.00359523
0.000951243
-0.00374108
0.000488863
-0.00375817
-2.61968e-05
-0.00363418
-0.000575731
-0.00336224
-0.00113073
-0.00294558
-0.001647
-0.00240347
-0.00206345
-0.00177721
-0.00230494
-0.00113358
-0.00229347
-0.000561747
-0.00197069
-0.000160087
-0.00133128
-0.000510503
-0.000178044
0.000691838
-0.000588773
0.00166071
-0.00113279
0.00227983
-0.00173294
0.00257668
-0.00233401
0.00261716
-0.00289813
0.00246584
-0.00339875
0.0021716
-0.00381529
0.00176552
-0.00412942
0.00126537
-0.00432279
0.000682235
-0.00437645
2.74678e-05
-0.00427226
-0.000679927
-0.00399578
-0.00140721
-0.00354253
-0.00210025
-0.00292645
-0.00267953
-0.00218986
-0.00304153
-0.00141119
-0.00307215
-0.000704086
-0.00267779
-0.000200323
-0.00183504
-0.000710825
-0.000205769
0.000897607
-0.000676064
0.00213101
-0.00129483
0.00289859
-0.00197342
0.00325527
-0.00265108
0.00329482
-0.00328845
0.00310321
-0.00385944
0.00274259
-0.00434434
0.00225042
-0.0047248
0.00164583
-0.00498077
0.000938205
-0.00508899
0.000135687
-0.00502415
-0.000744768
-0.00476148
-0.00166988
-0.00428439
-0.00257734
-0.003596
-0.00336791
-0.00273469
-0.00390285
-0.00178924
-0.00401759
-0.00090384
-0.00356319
-0.000258251
-0.00248063
-0.000969076
-0.000239218
0.00113682
-0.000777713
0.0026695
-0.00147985
0.00360073
-0.00224369
0.0040191
-0.0030029
0.00405404
-0.00371756
0.00381786
-0.00436339
0.00338842
-0.00492294
0.00280997
-0.0053793
0.00210219
-0.00571187
0.00127078
-0.00589387
0.00031768
-0.00589209
-0.000746544
-0.00566926
-0.00189271
-0.00519166
-0.00305494
-0.00444382
-0.00411576
-0.00345101
-0.00489566
-0.00230615
-0.00516245
-0.0011878
-0.00468154
-0.000343483
-0.00332495
-0.00131256
-0.000280477
0.0014173
-0.000897834
0.00328686
-0.00169241
0.00439531
-0.00254642
0.00487311
-0.00338812
0.00489574
-0.00417838
0.00460813
-0.00489657
0.00410661
-0.00552957
0.00344297
-0.00606412
0.00263673
-0.00648142
0.00168808
-0.00675323
0.000589497
-0.00683971
-0.000660064
-0.00669039
-0.00204203
-0.00625007
-0.00349526
-0.00547526
-0.00489057
-0.00436384
-0.00600708
-0.00299809
-0.0065282
-0.00158719
-0.00609244
-0.000468843
-0.00444329
-0.0017814
-0.000332272
0.00174957
-0.00104072
0.00399531
-0.00193521
0.0052898
-0.00287907
0.00581696
-0.00379574
0.00581241
-0.00464893
0.00546132
-0.00542412
0.0048818
-0.00611522
0.00413408
-0.00671573
0.00323724
-0.00721227
0.00218462
-0.00757926
0.00095649
-0.00777395
-0.000465374
-0.00773544
-0.00208053
-0.00738547
-0.00384524
-0.00664382
-0.00563222
-0.0054623
-0.00718859
-0.0038859
-0.0081046
-0.00213411
-0.00784423
-0.000651182
-0.00592622
-0.00243258
-0.000398825
0.0021484
-0.001212
0.00480848
-0.0022095
0.0062873
-0.00323262
0.00684008
-0.00420185
0.00678165
-0.00508705
0.00634651
-0.0058831
0.00567785
-0.00659433
0.00484531
-0.00722489
0.0038678
-0.00777169
0.00273142
-0.00821781
0.00140261
-0.00852434
-0.000158844
-0.00862809
-0.00197679
-0.00843169
-0.00404164
-0.00781468
-0.00624923
-0.00666397
-0.0083393
-0.00494849
-0.00982008
-0.0028504
-0.00994232
-0.000911082
-0.00786553
-0.00334366
-0.000487297
0.0026357
-0.00142015
0.00574133
-0.0025144
0.00738156
-0.00358765
0.00791333
-0.00456243
0.00775642
-0.00542036
0.00720444
-0.00617055
0.00642804
-0.00683192
0.00550669
-0.00742358
0.00445945
-0.00795811
0.00326594
-0.00843474
0.00187924
-0.00882682
0.000233231
-0.00908378
-0.00171982
-0.00910085
-0.00402457
-0.00872502
-0.00662506
-0.00776815
-0.00929617
-0.00607953
-0.0115087
-0.00372281
-0.012299
-0.00126953
-0.0103188
-0.00461319
-0.000610481
0.00324618
-0.00167843
0.00680928
-0.00284381
0.00854694
-0.00390472
0.00897424
-0.00479782
0.00864951
-0.00552708
0.0079337
-0.00612316
0.00702413
-0.00662459
0.00600811
-0.00706941
0.00490427
-0.0074901
0.00368664
-0.00790836
0.0022975
-0.00832228
0.000647146
-0.00870589
-0.00133621
-0.00897153
-0.00375893
-0.00895728
-0.00663931
-0.00841068
-0.00984277
-0.00703079
-0.0128886
-0.00465787
-0.014672
-0.00173647
-0.0132402
-0.00634966
-0.000791545
0.00403772
-0.00200615
0.00802388
-0.00317581
0.0097166
-0.00410054
0.00989898
-0.00475931
0.00930828
-0.00519814
0.00837253
-0.0054803
0.00730629
-0.00566919
0.006197
-0.00582382
0.0050589
-0.00599697
0.00385979
-0.00623345
0.00253399
-0.00657016
0.000983856
-0.00700766
-0.000898711
-0.00750984
-0.00325675
-0.00794587
-0.00620327
-0.00804202
-0.00974663
-0.00735681
-0.0135738
-0.00541353
-0.0166152
-0.00227942
-0.0163743
-0.00862909
-0.00106713
0.00510485
-0.00242158
0.00937834
-0.00343644
0.0107315
-0.00398494
0.0104475
-0.00415179
0.00947513
-0.004058
0.00827874
-0.0038124
0.00706069
-0.00350479
0.00588939
-0.00321154
0.00476565
-0.00299906
0.00364731
-0.00292943
0.00246435
-0.00306535
0.00111978
-0.00345548
-0.000508577
-0.00412645
-0.00258578
-0.00503074
-0.00529898
-0.00595204
-0.00882533
-0.00638729
-0.0131386
-0.00551894
-0.0174836
-0.00275095
-0.0191423
-0.01138
-0.00147534
0.00658019
-0.00288641
0.0107894
-0.00336208
0.0112071
-0.00307427
0.0101597
-0.00234135
0.00874221
-0.0013917
0.00732909
-0.000378791
0.00604778
0.000594758
0.00491584
0.00145755
0.00390286
0.00214715
0.00295771
0.0025996
0.00201191
0.00274209
0.000977291
0.00249038
-0.000256872
0.0017495
-0.0018449
0.000453432
-0.00400291
-0.00134632
-0.00702557
-0.00324941
-0.0112355
-0.00421865
-0.0165143
-0.00277553
-0.0205855
-0.0141556
-0.00203752
0.00861771
-0.00296562
0.0117175
-0.00192598
0.0101675
-1.98994e-05
0.00825358
0.00212816
0.00659415
0.00422537
0.00523188
0.00614509
0.00412806
0.00782676
0.00323417
0.00923667
0.00249296
0.010348
0.00184638
0.0111245
0.00123545
0.0115052
0.000596549
0.0113965
-0.00014813
0.0106607
-0.00110911
0.00910987
-0.00245211
0.00656934
-0.00448504
0.00310017
-0.0077663
-0.000444741
-0.0129694
-0.00177563
-0.0192546
-0.0159312
-0.0023635
0.0109812
0.000238302
0.00911571
0.00465762
0.00574817
0.0088192
0.00409201
0.0124097
0.00300366
0.0154326
0.00220896
0.0179277
0.00163292
0.0199496
0.0012123
0.0215476
0.00089498
0.0227528
0.000641124
0.0235695
0.000418792
0.0239659
0.00020012
0.0238652
-4.74056e-05
0.0231257
-0.000369568
0.0215065
-0.000832917
0.0186273
-0.00160584
0.0140132
-0.00315224
0.00749696
-0.00645319
0.000918098
-0.0126757
-0.0150131
0.0109812
0.0200969
0.0258451
0.0299371
0.0329408
0.0351497
0.0367826
0.0379949
0.0388899
0.039531
0.0399498
0.04015
0.0401026
0.039733
0.0389001
0.0372942
0.034142
0.0276888
0.0150131
)
;

boundaryField
{
    movingWall
    {
        type            calculated;
        value           uniform 0;
    }
    fixedWalls
    {
        type            calculated;
        value           uniform 0;
    }
    frontAndBack
    {
        type            empty;
    }
}


// ************************************************************************* //
