/*--------------------------------*- C++ -*----------------------------------*\
  =========                 |
  \\      /  F ield         | OpenFOAM: The Open Source CFD Toolbox
   \\    /   O peration     | Website:  https://openfoam.org
    \\  /    A nd           | Version:  13
     \\/     M anipulation  |
\*---------------------------------------------------------------------------*/
FoamFile
{
    format      ascii;
    class       surfaceScalarField;
    location    "5";
    object      phi_0;
}
// * * * * * * * * * * * * * * * * * * * * * * * * * * * * * * * * * * * * * //

dimensions      [0 3 -1 0 0 0 0];

internalField   nonuniform List<scalar> 
760
(
-1.11525e-05
1.11523e-05
-5.53064e-05
4.4154e-05
-0.000129039
7.37324e-05
-0.000218043
8.90042e-05
-0.000309852
9.18093e-05
-0.000395942
8.60899e-05
-0.000470584
7.46421e-05
-0.000529726
5.91417e-05
-0.000570251
4.05256e-05
-0.000589671
1.94193e-05
-0.000586089
-3.58088e-06
-0.000558481
-2.76086e-05
-0.000507005
-5.14763e-05
-0.000433574
-7.343e-05
-0.00034254
-9.1035e-05
-0.000241502
-0.000101037
-0.000142074
-9.94285e-05
-6.00725e-05
-8.20019e-05
-1.18555e-05
-4.82165e-05
-1.18548e-05
-4.59392e-05
5.70915e-05
-0.000153203
0.000151418
-0.000322771
0.000243301
-0.000524163
0.000290396
-0.000731801
0.000299446
-0.000927086
0.000281375
-0.0010969
0.000244453
-0.00123161
0.000193859
-0.00132375
0.000132663
-0.00136735
6.30144e-05
-0.001358
-1.29245e-05
-0.00129339
-9.22203e-05
-0.0011742
-0.000170665
-0.00100538
-0.000242253
-0.00079758
-0.000298834
-0.000568649
-0.000329968
-0.000344579
-0.000323499
-0.000158693
-0.00026789
-4.62e-05
-0.000160711
-5.80531e-05
-8.0945e-05
0.000138037
-0.000262463
0.000332936
-0.0005187
0.000499539
-0.000810224
0.000581919
-0.00110488
0.000594106
-0.00137889
0.000555377
-0.00161507
0.000480633
-0.00180073
0.000379519
-0.00192609
0.000258034
-0.0019836
0.000120521
-0.00196784
-2.86876e-05
-0.00187619
-0.000183871
-0.00170985
-0.000336999
-0.0014754
-0.000476703
-0.00118656
-0.000587681
-0.000865956
-0.000650569
-0.000546304
-0.00064315
-0.000269467
-0.000544726
-8.1174e-05
-0.000349009
-0.000139226
-0.000108035
0.000246071
-0.000347628
0.000572529
-0.00067247
0.000824381
-0.00103381
0.000943259
-0.00139438
0.00095468
-0.00172725
0.000888245
-0.00201308
0.000766458
-0.00223752
0.000603961
-0.00238947
0.000409983
-0.00246018
0.000191231
-0.00244319
-4.56738e-05
-0.00233501
-0.000292049
-0.00213632
-0.000535692
-0.00185384
-0.000759177
-0.00150268
-0.000938849
-0.00110863
-0.00104462
-0.000709959
-0.00104182
-0.000357066
-0.000897618
-0.000108175
-0.000597899
-0.0002474
-0.000129684
0.000375755
-0.000417415
0.000860259
-0.00080117
0.00120814
-0.00122302
0.00136511
-0.00164073
0.00137239
-0.00202488
0.00127239
-0.00235479
0.00109637
-0.00261525
0.000864417
-0.00279425
0.000588979
-0.00288191
0.00027889
-0.0028703
-5.72799e-05
-0.00275419
-0.000408153
-0.00253246
-0.000757425
-0.00221053
-0.0010811
-0.00180355
-0.00134583
-0.00133988
-0.00150829
-0.000863941
-0.00151776
-0.000436816
-0.00132474
-0.00013168
-0.000903033
-0.000379081
-0.000150248
0.000526004
-0.000483654
0.00119366
-0.000924779
0.00164926
-0.00140631
0.00184664
-0.00188085
0.00184694
-0.00231668
0.00170821
-0.00269225
0.00147195
-0.00299191
0.00116407
-0.00320299
0.000800066
-0.00331441
0.000390309
-0.00331621
-5.54826e-05
-0.00320042
-0.00052394
-0.0029626
-0.000995245
-0.00260513
-0.00143858
-0.00214166
-0.0018093
-0.00160244
-0.00204751
-0.0010392
-0.00208101
-0.000526854
-0.00183709
-0.000157841
-0.00127204
-0.000536921
-0.000173132
0.000699136
-0.000555874
0.00157641
-0.00105921
0.00215259
-0.00160546
0.00239289
-0.00214175
0.00238323
-0.00263422
0.00220068
-0.00306091
0.00189864
-0.0034062
0.00150936
-0.00365715
0.00105101
-0.00380142
0.000534583
-0.00382651
-3.03922e-05
-0.00372076
-0.000629698
-0.00347455
-0.00124145
-0.0030849
-0.00182824
-0.00256154
-0.00233266
-0.00193508
-0.00267396
-0.00126516
-0.00275092
-0.000644615
-0.00245764
-0.000192336
-0.00172432
-0.000729255
-0.00020092
0.000900056
-0.000641155
0.00201664
-0.00121593
0.00272737
-0.00183548
0.00301244
-0.00244097
0.00298872
-0.00299679
0.00275649
-0.00348126
0.00238312
-0.00387961
0.00190771
-0.00417925
0.00135065
-0.004367
0.000722333
-0.00442739
2.99922e-05
-0.00434445
-0.000712636
-0.00410123
-0.00148467
-0.00368625
-0.00224322
-0.00310151
-0.0029174
-0.0023745
-0.00340097
-0.00157188
-0.00355354
-0.000808709
-0.00322081
-0.000241288
-0.00229174
-0.000970543
-0.000235855
0.00113591
-0.000745115
0.0025259
-0.00140336
0.00338562
-0.00210621
0.00371529
-0.00278848
0.00367099
-0.00341346
0.00338147
-0.00396095
0.00293061
-0.00441829
0.00236505
-0.00477444
0.0017068
-0.00501643
0.000964322
-0.00512563
0.000139193
-0.00508222
-0.000756044
-0.00485939
-0.00170749
-0.00443354
-0.00266907
-0.00379326
-0.00355769
-0.00295643
-0.0042378
-0.00199246
-0.00451752
-0.00104161
-0.00417165
-0.000312547
-0.00302081
-0.00128309
-0.000280407
0.00141632
-0.000873033
0.00311853
-0.00162819
0.00414078
-0.00242365
0.00451075
-0.00318764
0.00443498
-0.00388364
0.00407747
-0.00449467
0.00354164
-0.00501203
0.00288241
-0.00542812
0.00212289
-0.00573165
0.00126785
-0.00590437
0.000311912
-0.00591957
-0.000740844
-0.00574168
-0.00188538
-0.00533087
-0.00307988
-0.00465491
-0.00423364
-0.00371157
-0.00518114
-0.00256261
-0.00566648
-0.00137157
-0.00536269
-0.00041706
-0.00397532
-0.00170015
-0.000337875
0.00175419
-0.00103083
0.00381148
-0.00189615
0.0050061
-0.00278994
0.00540453
-0.00363421
0.00527925
-0.00439477
0.00483802
-0.00506042
0.0042073
-0.00562912
0.00345111
-0.00609938
0.00259314
-0.00646449
0.00163297
-0.0067088
0.000556216
-0.00680178
-0.000647857
-0.00669952
-0.00198765
-0.00634362
-0.00343579
-0.00567333
-0.00490392
-0.00465167
-0.0062028
-0.00331336
-0.00700479
-0.00183172
-0.00684432
-0.000570054
-0.00523698
-0.0022702
-0.000413127
0.00216732
-0.00122586
0.00462422
-0.00221173
0.00599197
-0.00320124
0.00639404
-0.00411202
0.00619003
-0.00491579
0.00564179
-0.00561086
0.00490237
-0.00620532
0.00404558
-0.00670738
0.0030952
-0.00711888
0.00204447
-0.00742975
0.000867089
-0.00761216
-0.000465446
-0.00761701
-0.0019828
-0.00736866
-0.00368413
-0.00677276
-0.00549983
-0.00574115
-0.0072344
-0.00425157
-0.00849437
-0.00245305
-0.00864285
-0.00079142
-0.00689861
-0.00306162
-0.000513698
0.00268102
-0.00146748
0.005578
-0.00257602
0.00710051
-0.00364171
0.00745973
-0.00458288
0.0071312
-0.00538344
0.00644235
-0.00605661
0.00557554
-0.00662511
0.00461408
-0.00711087
0.00358095
-0.00752857
0.00246217
-0.00787962
0.00121814
-0.00814448
-0.000200579
-0.00827838
-0.00184891
-0.00819563
-0.00376687
-0.00777045
-0.00592501
-0.00685152
-0.00815334
-0.00532241
-0.0100235
-0.00324527
-0.01072
-0.0011038
-0.00904007
-0.00416542
-0.000651611
0.00333263
-0.00176692
0.00669331
-0.00298037
0.00831396
-0.00406937
0.00854873
-0.00496526
0.00802709
-0.00567561
0.0071527
-0.00623662
0.00613656
-0.006691
0.00506846
-0.00707827
0.00396822
-0.00742967
0.00281357
-0.00776334
0.0015518
-0.00807468
0.000110761
-0.00833663
-0.00158696
-0.00846827
-0.00363524
-0.00832751
-0.00606576
-0.00770232
-0.00877853
-0.00635017
-0.0113756
-0.004157
-0.0129132
-0.0015245
-0.0116726
-0.00568992
-0.000846281
0.00417891
-0.00213478
0.00798181
-0.00338979
0.00956897
-0.00438369
0.00954263
-0.00508989
0.00873329
-0.00556029
0.00762309
-0.00586571
0.00644198
-0.00607405
0.0052768
-0.00624404
0.0041382
-0.0064239
0.00299344
-0.00665084
0.00177874
-0.00693953
0.000399456
-0.00729454
-0.00123195
-0.00766096
-0.00326883
-0.00791198
-0.00581475
-0.00780391
-0.00888659
-0.00696361
-0.0122159
-0.00500733
-0.0148695
-0.00204124
-0.0146387
-0.00773116
-0.00112428
0.00530318
-0.00256878
0.00942631
-0.00369751
0.0106977
-0.00434924
0.0101944
-0.00460645
0.0089905
-0.00459928
0.00761592
-0.00444515
0.00628785
-0.00423715
0.00506881
-0.00404761
0.00394867
-0.00393461
0.00288044
-0.0039479
0.00179203
-0.00412827
0.000579829
-0.00450694
-0.000853282
-0.00508512
-0.00269065
-0.00579516
-0.0051047
-0.00642566
-0.00825609
-0.00652492
-0.0121167
-0.00538879
-0.0160056
-0.00254928
-0.0174782
-0.0102804
-0.00150949
0.00681268
-0.00299594
0.0109128
-0.00357838
0.0112801
-0.00339724
0.0100132
-0.00278221
0.00837547
-0.00197064
0.00680436
-0.00111916
0.00543637
-0.00032645
0.0042761
0.000342775
0.00327944
0.000839673
0.00238354
0.00111815
0.00151355
0.00112103
0.000576952
0.00079505
-0.000527306
6.87311e-05
-0.00196433
-0.00109439
-0.00394158
-0.00261058
-0.0067399
-0.00408771
-0.0106395
-0.00456392
-0.0155294
-0.00273367
-0.0193084
-0.0130141
-0.00199258
0.00880526
-0.00295453
0.0118747
-0.00193996
0.0102656
-9.92313e-05
0.0081725
0.00192794
0.00634829
0.00384409
0.00488821
0.00553642
0.00374404
0.00696446
0.00284805
0.00811381
0.0021301
0.00897359
0.00152376
0.00952153
0.000965608
0.0097085
0.000389983
0.00946402
-0.000282824
0.00866251
-0.00116283
0.00714358
-0.00242264
0.0047672
-0.00436353
0.00164183
-0.00751417
-0.00137658
-0.012511
-0.00200776
-0.0186772
-0.0150219
-0.00227355
0.0110788
0.000433202
0.00916796
0.00500162
0.00569714
0.00917172
0.0040024
0.0126362
0.00288384
0.0154399
0.00208448
0.0176688
0.0015152
0.0194113
0.00110552
0.0207401
0.000801313
0.0217011
0.000562698
0.0223082
0.000358545
0.0225355
0.000162722
0.0223116
-5.89706e-05
0.0214923
-0.000343544
0.0198326
-0.000762906
0.0169484
-0.0014794
0.0123829
-0.00294858
0.00607359
-0.0062017
0.000140345
-0.012744
-0.0148815
0.0110788
0.0202468
0.0259439
0.0299463
0.0328301
0.0349146
0.0364298
0.0375353
0.0383367
0.0388994
0.0392579
0.0394206
0.0393616
0.0390181
0.0382552
0.0367758
0.0338272
0.0276255
0.0148815
)
;

boundaryField
{
    movingWall
    {
        type            calculated;
        value           uniform 0;
    }
    fixedWalls
    {
        type            calculated;
        value           uniform 0;
    }
    frontAndBack
    {
        type            empty;
    }
}


// ************************************************************************* //
