/*--------------------------------*- C++ -*----------------------------------*\
  =========                 |
  \\      /  F ield         | OpenFOAM: The Open Source CFD Toolbox
   \\    /   O peration     | Website:  https://openfoam.org
    \\  /    A nd           | Version:  13
     \\/     M anipulation  |
\*---------------------------------------------------------------------------*/
FoamFile
{
    format      ascii;
    class       volVectorField;
    location    "5";
    object      U;
}
// * * * * * * * * * * * * * * * * * * * * * * * * * * * * * * * * * * * * * //

dimensions      [0 1 -1 0 0 0 0];

internalField   nonuniform List<vector> 
400
(
(7.12563e-05 -7.15262e-05 0)
(-0.000361129 7.72864e-05 0)
(-0.00148064 0.000234579 0)
(-0.00310484 0.000340021 0)
(-0.00495607 0.000394948 0)
(-0.00681696 0.000407664 0)
(-0.00853251 0.00038561 0)
(-0.00999036 0.000334108 0)
(-0.0111024 0.000256275 0)
(-0.0117949 0.000154723 0)
(-0.0120068 3.35161e-05 0)
(-0.0116943 -0.000100114 0)
(-0.0108414 -0.000234649 0)
(-0.00947336 -0.000353565 0)
(-0.00767216 -0.000436367 0)
(-0.0055914 -0.000461271 0)
(-0.00346638 -0.000410994 0)
(-0.00160927 -0.000279563 0)
(-0.000361949 -8.6214e-05 0)
(7.95648e-05 8.05896e-05 0)
(-6.80944e-05 0.000361932 0)
(-0.00166193 0.00160295 0)
(-0.00459936 0.00273827 0)
(-0.00856587 0.00340256 0)
(-0.0129809 0.00361749 0)
(-0.0173878 0.00348578 0)
(-0.0214375 0.00309883 0)
(-0.0248648 0.00251683 0)
(-0.027459 0.00177517 0)
(-0.0290452 0.000899076 0)
(-0.0294833 -8.23112e-05 0)
(-0.0286789 -0.00112419 0)
(-0.0266061 -0.00215825 0)
(-0.023338 -0.00308632 0)
(-0.0190788 -0.0037809 0)
(-0.0141906 -0.00409327 0)
(-0.0092011 -0.00387765 0)
(-0.00477194 -0.00304269 0)
(-0.00160117 -0.0016647 0)
(-6.27622e-05 -0.000330437 0)
(-0.000232377 0.00154696 0)
(-0.00301706 0.00461859 0)
(-0.00763311 0.00715886 0)
(-0.0135235 0.00862036 0)
(-0.0199142 0.00906129 0)
(-0.0262073 0.00868583 0)
(-0.0319401 0.00768747 0)
(-0.0367557 0.00620405 0)
(-0.0403704 0.00432584 0)
(-0.0425531 0.00212311 0)
(-0.043122 -0.000324251 0)
(-0.0419587 -0.00290118 0)
(-0.0390345 -0.00543789 0)
(-0.0344483 -0.007699 0)
(-0.0284673 -0.00938585 0)
(-0.0215623 -0.0101611 0)
(-0.0144186 -0.00970928 0)
(-0.00790088 -0.00785315 0)
(-0.00294728 -0.00475254 0)
(-0.000226951 -0.0014741 0)
(-0.000371457 0.00340516 0)
(-0.00415148 0.00903545 0)
(-0.0102187 0.013281 0)
(-0.0177219 0.0156158 0)
(-0.0257212 0.0162188 0)
(-0.0335176 0.0154386 0)
(-0.0405806 0.0135951 0)
(-0.0465016 0.0109197 0)
(-0.0509542 0.00756836 0)
(-0.0536686 0.0036652 0)
(-0.0544277 -0.000650737 0)
(-0.053081 -0.00518315 0)
(-0.0495761 -0.00964542 0)
(-0.0440045 -0.0136403 0)
(-0.0366552 -0.0166626 0)
(-0.0280654 -0.01814 0)
(-0.0190457 -0.0175335 0)
(-0.0106554 -0.0145218 0)
(-0.00407954 -0.00928501 0)
(-0.000367428 -0.00327311 0)
(-0.00048701 0.00579694 0)
(-0.00510546 0.0146141 0)
(-0.0124587 0.0208298 0)
(-0.0213981 0.0240971 0)
(-0.0308277 0.0248045 0)
(-0.0399611 0.0234928 0)
(-0.0482223 0.0206319 0)
(-0.0551736 0.0165559 0)
(-0.0604618 0.0114888 0)
(-0.0637853 0.00560654 0)
(-0.0648856 -0.000895813 0)
(-0.0635615 -0.00774122 0)
(-0.0597058 -0.0145194 0)
(-0.0533624 -0.020651 0)
(-0.0448018 -0.0253849 0)
(-0.0346001 -0.027853 0)
(-0.023694 -0.0272149 0)
(-0.0133785 -0.0229239 0)
(-0.00514011 -0.0151128 0)
(-0.000505318 -0.00561291 0)
(-0.000588962 0.00864866 0)
(-0.0059923 0.0212351 0)
(-0.0145719 0.0296874 0)
(-0.0249008 0.0339547 0)
(-0.0357262 0.0347217 0)
(-0.0461812 0.0327775 0)
(-0.0556571 0.0287693 0)
(-0.0637012 0.0231418 0)
(-0.0699439 0.0161822 0)
(-0.0740532 0.00810546 0)
(-0.0757194 -0.000852989 0)
(-0.074667 -0.010349 0)
(-0.0706957 -0.0198535 0)
(-0.063753 -0.0285891 0)
(-0.0540405 -0.0355121 0)
(-0.0421386 -0.0393726 0)
(-0.0291138 -0.0389099 0)
(-0.0165581 -0.0332258 0)
(-0.0063571 -0.0223272 0)
(-0.000671845 -0.00849622 0)
(-0.000687603 0.0119568 0)
(-0.00692087 0.0288899 0)
(-0.0167707 0.0398594 0)
(-0.0285494 0.0452068 0)
(-0.0408365 0.0460031 0)
(-0.0526905 0.0433478 0)
(-0.0634825 0.0380969 0)
(-0.0727591 0.0308127 0)
(-0.0801454 0.0218346 0)
(-0.0852831 0.011395 0)
(-0.0878027 -0.00025928 0)
(-0.0873316 -0.0127464 0)
(-0.0835348 -0.0254376 0)
(-0.0762021 -0.0373519 0)
(-0.0653948 -0.0471013 0)
(-0.0516353 -0.0529407 0)
(-0.0360996 -0.0530133 0)
(-0.0207398 -0.0458732 0)
(-0.00798599 -0.031278 0)
(-0.000904318 -0.0120565 0)
(-0.000792091 0.0157737 0)
(-0.00797883 0.037663 0)
(-0.0192237 0.0514468 0)
(-0.0325841 0.057956 0)
(-0.0464517 0.0587524 0)
(-0.0598182 0.0553183 0)
(-0.0720518 0.0487549 0)
(-0.0827178 0.0397485 0)
(-0.0914542 0.0286761 0)
(-0.0978882 0.0157567 0)
(-0.101593 0.00120654 0)
(-0.102082 -0.014605 0)
(-0.0988468 -0.0309902 0)
(-0.0914479 -0.0467801 0)
(-0.0797066 -0.0602006 0)
(-0.0639767 -0.0688761 0)
(-0.0454692 -0.0701088 0)
(-0.0265301 -0.0615922 0)
(-0.010324 -0.0425982 0)
(-0.00124942 -0.0165664 0)
(-0.00090997 0.0201952 0)
(-0.0092376 0.0477065 0)
(-0.0220558 0.064612 0)
(-0.0371616 0.0723448 0)
(-0.0527302 0.0730904 0)
(-0.0676982 0.0688031 0)
(-0.0814554 0.0608718 0)
(-0.093615 0.0501146 0)
(-0.103856 0.036929 0)
(-0.111818 0.0214831 0)
(-0.117037 0.00390667 0)
(-0.118916 -0.0155132 0)
(-0.116743 -0.0361043 0)
(-0.109784 -0.0565658 0)
(-0.0974918 -0.0747291 0)
(-0.07988 -0.0874551 0)
(-0.0580236 -0.0908882 0)
(-0.0346111 -0.0813765 0)
(-0.0137454 -0.057243 0)
(-0.00176689 -0.0224659 0)
(-0.00104898 0.0253572 0)
(-0.0107663 0.0592215 0)
(-0.0253631 0.0795451 0)
(-0.0423664 0.088508 0)
(-0.0596977 0.0890966 0)
(-0.076258 0.0838478 0)
(-0.0914934 0.0744896 0)
(-0.105105 0.0619829 0)
(-0.116855 0.0467293 0)
(-0.126442 0.0288064 0)
(-0.133409 0.00819244 0)
(-0.137081 -0.0149978 0)
(-0.136556 -0.0402218 0)
(-0.130756 -0.0661641 0)
(-0.118637 -0.0903273 0)
(-0.0996385 -0.108727 0)
(-0.0743938 -0.115994 0)
(-0.0457028 -0.106426 0)
(-0.0187347 -0.0765353 0)
(-0.00253385 -0.0304164 0)
(-0.00122095 0.0314422 0)
(-0.0126505 0.0724461 0)
(-0.0292321 0.096429 0)
(-0.0482186 0.106517 0)
(-0.0672361 0.106735 0)
(-0.0851831 0.100342 0)
(-0.101611 0.0894653 0)
(-0.11636 0.0752236 0)
(-0.129334 0.0580119 0)
(-0.140357 0.0377828 0)
(-0.149055 0.0142996 0)
(-0.154757 -0.0126016 0)
(-0.156436 -0.0426564 0)
(-0.152689 -0.0747317 0)
(-0.141887 -0.106185 0)
(-0.122636 -0.132242 0)
(-0.094676 -0.145722 0)
(-0.0603934 -0.137962 0)
(-0.02589 -0.102176 0)
(-0.00364822 -0.0413785 0)
(-0.0014494 0.0387003 0)
(-0.0150177 0.0876524 0)
(-0.0337578 0.115398 0)
(-0.0546664 0.126302 0)
(-0.0750385 0.125755 0)
(-0.0938316 0.117902 0)
(-0.110772 0.105338 0)
(-0.125908 0.0893599 0)
(-0.139356 0.0703544 0)
(-0.151149 0.0481297 0)
(-0.161106 0.0221829 0)
(-0.168686 -0.00803088 0)
(-0.172885 -0.0426914 0)
(-0.172106 -0.0811239 0)
(-0.164154 -0.12088 0)
(-0.14661 -0.156694 0)
(-0.11778 -0.179523 0)
(-0.0787398 -0.176794 0)
(-0.0358503 -0.136129 0)
(-0.00523076 -0.0567019 0)
(-0.00178468 0.0474936 0)
(-0.018078 0.105149 0)
(-0.0390595 0.136468 0)
(-0.0615434 0.147533 0)
(-0.0824965 0.145537 0)
(-0.101056 0.135703 0)
(-0.117234 0.121156 0)
(-0.131374 0.103391 0)
(-0.14389 0.0827938 0)
(-0.15512 0.0590307 0)
(-0.165198 0.0313141 0)
(-0.173869 -0.00134768 0)
(-0.180387 -0.0397614 0)
(-0.183224 -0.0839942 0)
(-0.179833 -0.132293 0)
(-0.166786 -0.179541 0)
(-0.140497 -0.215297 0)
(-0.0995341 -0.222501 0)
(-0.0490455 -0.180193 0)
(-0.00742555 -0.07819 0)
(-0.00233432 0.0583776 0)
(-0.0221897 0.125279 0)
(-0.04528 0.159411 0)
(-0.0684429 0.16941 0)
(-0.0884431 0.164856 0)
(-0.104846 0.152244 0)
(-0.118136 0.135265 0)
(-0.129074 0.115607 0)
(-0.138459 0.0936636 0)
(-0.147012 0.0689758 0)
(-0.155282 0.0404961 0)
(-0.16348 0.00679827 0)
(-0.171355 -0.033709 0)
(-0.177809 -0.082033 0)
(-0.180433 -0.137711 0)
(-0.175175 -0.196774 0)
(-0.156463 -0.248614 0)
(-0.119195 -0.272164 0)
(-0.0650853 -0.234993 0)
(-0.0103883 -0.108037 0)
(-0.00331479 0.072247 0)
(-0.0279619 0.14839 0)
(-0.0525136 0.183469 0)
(-0.0743715 0.190262 0)
(-0.0905605 0.181483 0)
(-0.101588 0.165023 0)
(-0.108723 0.145076 0)
(-0.113307 0.123457 0)
(-0.116588 0.100533 0)
(-0.119687 0.0757306 0)
(-0.123569 0.0477965 0)
(-0.129036 0.0149389 0)
(-0.136493 -0.0250708 0)
(-0.145617 -0.0743755 0)
(-0.154877 -0.134266 0)
(-0.160449 -0.203116 0)
(-0.155407 -0.272239 0)
(-0.130437 -0.318868 0)
(-0.0815007 -0.298068 0)
(-0.0141897 -0.148387 0)
(-0.00509284 0.0906726 0)
(-0.0362995 0.174748 0)
(-0.0604064 0.206746 0)
(-0.0767217 0.2068 0)
(-0.0839138 0.191554 0)
(-0.0844389 0.170121 0)
(-0.0808028 0.146893 0)
(-0.0750431 0.123573 0)
(-0.0688159 0.100376 0)
(-0.0635225 0.0765748 0)
(-0.0604096 0.0507843 0)
(-0.0606716 0.0210309 0)
(-0.0654334 -0.015243 0)
(-0.0754355 -0.0611523 0)
(-0.0906443 -0.119823 0)
(-0.108768 -0.192996 0)
(-0.123166 -0.276565 0)
(-0.121136 -0.350687 0)
(-0.0915959 -0.361241 0)
(-0.018366 -0.20018 0)
(-0.00817738 0.116996 0)
(-0.0478841 0.20402 0)
(-0.0661827 0.224429 0)
(-0.0678279 0.212419 0)
(-0.0569885 0.188482 0)
(-0.0395848 0.161757 0)
(-0.0195578 0.135972 0)
(0.000609275 0.112171 0)
(0.0192094 0.0901241 0)
(0.0349279 0.0689079 0)
(0.0466272 0.0471128 0)
(0.0530533 0.0228449 0)
(0.0526563 -0.00640038 0)
(0.043761 -0.0439929 0)
(0.0245447 -0.0943343 0)
(-0.00553607 -0.162567 0)
(-0.0427668 -0.251601 0)
(-0.0739833 -0.35119 0)
(-0.0819007 -0.408291 0)
(-0.0205301 -0.261203 0)
(-0.014266 0.160051 0)
(-0.0594593 0.233757 0)
(-0.0545976 0.225562 0)
(-0.0226786 0.195549 0)
(0.019188 0.163037 0)
(0.0622303 0.133496 0)
(0.102676 0.108143 0)
(0.138782 0.0867111 0)
(0.169746 0.068307 0)
(0.195057 0.0518083 0)
(0.214168 0.0359118 0)
(0.226207 0.019071 0)
(0.229726 -0.000648487 0)
(0.22257 -0.0259597 0)
(0.20153 -0.0610636 0)
(0.162776 -0.112798 0)
(0.104054 -0.191306 0)
(0.0331521 -0.302803 0)
(-0.0318303 -0.413957 0)
(-0.0130584 -0.321741 0)
(-0.0194677 0.214694 0)
(-0.0341065 0.23989 0)
(0.0459736 0.18113 0)
(0.134351 0.137835 0)
(0.212604 0.105149 0)
(0.278815 0.0800706 0)
(0.333717 0.0610032 0)
(0.378558 0.0464565 0)
(0.414506 0.0350736 0)
(0.442434 0.0257041 0)
(0.462753 0.0173361 0)
(0.475254 0.00898567 0)
(0.478958 -0.000415793 0)
(0.471855 -0.0123094 0)
(0.450321 -0.0292502 0)
(0.408563 -0.0564233 0)
(0.337512 -0.106402 0)
(0.230673 -0.202364 0)
(0.0869767 -0.343918 0)
(0.0358649 -0.323138 0)
(0.244907 0.110385 0)
(0.320832 0.100295 0)
(0.456081 0.0611571 0)
(0.560261 0.0393903 0)
(0.631937 0.0269716 0)
(0.683232 0.019093 0)
(0.720864 0.0139084 0)
(0.748749 0.0104071 0)
(0.769436 0.00795356 0)
(0.784562 0.00613671 0)
(0.795062 0.00467564 0)
(0.801283 0.00335803 0)
(0.802992 0.00201072 0)
(0.799209 0.000443689 0)
(0.787744 -0.00171421 0)
(0.764513 -0.00495927 0)
(0.719072 -0.0116503 0)
(0.634538 -0.0258834 0)
(0.464021 -0.073711 0)
(0.304256 -0.121004 0)
)
;

boundaryField
{
    movingWall
    {
        type            fixedValue;
        value           uniform (1 0 0);
    }
    fixedWalls
    {
        type            fixedValue;
        value           uniform (0 0 0);
    }
    frontAndBack
    {
        type            empty;
    }
}


// ************************************************************************* //
