/*--------------------------------*- C++ -*----------------------------------*\
  =========                 |
  \\      /  F ield         | OpenFOAM: The Open Source CFD Toolbox
   \\    /   O peration     | Website:  https://openfoam.org
    \\  /    A nd           | Version:  13
     \\/     M anipulation  |
\*---------------------------------------------------------------------------*/
FoamFile
{
    format      ascii;
    class       volVectorField;
    location    "5";
    object      U;
}
// * * * * * * * * * * * * * * * * * * * * * * * * * * * * * * * * * * * * * //

dimensions      [0 1 -1 0 0 0 0];

internalField   nonuniform List<vector> 8((-0.042688 0.0321945 2.7183e-14) (-0.0281432 -0.0401434 -0.0175376) (0.0781225 0.0401434 0.0162905) (0.0926672 -0.0321945 -0.0338281) (-0.042688 0.0321945 -2.7183e-14) (-0.0281432 -0.0401434 0.0175376) (0.0781225 0.0401434 -0.0162905) (0.0926672 -0.0321945 0.0338281));

boundaryField
{
    movingWall
    {
        type            fixedValue;
        value           uniform (1 0 0);
    }
    fixedWalls
    {
        type            fixedValue;
        value           uniform (0 0 0);
    }
    frontAndBack
    {
        type            empty;
    }
}


// ************************************************************************* //
