/*--------------------------------*- C++ -*----------------------------------*\
  =========                 |
  \\      /  F ield         | OpenFOAM: The Open Source CFD Toolbox
   \\    /   O peration     | Website:  https://openfoam.org
    \\  /    A nd           | Version:  13
     \\/     M anipulation  |
\*---------------------------------------------------------------------------*/
FoamFile
{
    format      ascii;
    class       volVectorField;
    location    "5";
    object      U_0;
}
// * * * * * * * * * * * * * * * * * * * * * * * * * * * * * * * * * * * * * //

dimensions      [0 1 -1 0 0 0 0];

internalField   nonuniform List<vector> 
400
(
(2.03227e-06 1.01449e-06 0)
(-0.000559889 0.000158418 0)
(-0.00179222 0.000321936 0)
(-0.00348332 0.000429164 0)
(-0.00534311 0.000472637 0)
(-0.00715823 0.000467807 0)
(-0.00878983 0.000426227 0)
(-0.0101437 0.000356166 0)
(-0.0111504 0.000262745 0)
(-0.0117552 0.000149735 0)
(-0.0119148 2.13966e-05 0)
(-0.0116001 -0.000116272 0)
(-0.0108017 -0.000254035 0)
(-0.00953877 -0.000378847 0)
(-0.00787092 -0.000473429 0)
(-0.00591339 -0.000516942 0)
(-0.00385414 -0.000488372 0)
(-0.00197153 -0.000370287 0)
(-0.000607525 -0.000180301 0)
(-6.77602e-06 -2.80026e-06 0)
(-0.000146671 0.000564956 0)
(-0.00172592 0.00166433 0)
(-0.00468118 0.00278775 0)
(-0.0085528 0.0033739 0)
(-0.0127794 0.0034943 0)
(-0.0169079 0.00329003 0)
(-0.0206281 0.00286465 0)
(-0.0237191 0.00228073 0)
(-0.0260149 0.00157369 0)
(-0.0273849 0.00076738 0)
(-0.0277275 -0.000113932 0)
(-0.0269763 -0.00103749 0)
(-0.0251141 -0.00195456 0)
(-0.0221936 -0.00279527 0)
(-0.0183642 -0.00346348 0)
(-0.0139022 -0.0038334 0)
(-0.00923556 -0.00375417 0)
(-0.0049666 -0.0030762 0)
(-0.00175363 -0.0017795 0)
(-0.0001729 -0.000578336 0)
(-0.000323278 0.00186443 0)
(-0.00305723 0.00468773 0)
(-0.00768415 0.00720322 0)
(-0.0133683 0.00848061 0)
(-0.0194071 0.00870257 0)
(-0.0252239 0.0081587 0)
(-0.0304182 0.00707513 0)
(-0.0346985 0.00559775 0)
(-0.0378468 0.00381655 0)
(-0.039694 0.00179634 0)
(-0.040113 -0.000397834 0)
(-0.0390241 -0.00268084 0)
(-0.0364115 -0.00493217 0)
(-0.0323483 -0.00698251 0)
(-0.0270294 -0.00860408 0)
(-0.0208086 -0.00950812 0)
(-0.0142273 -0.00936237 0)
(-0.00804577 -0.00785889 0)
(-0.0030907 -0.00492971 0)
(-0.000356245 -0.00188567 0)
(-0.00047207 0.00378814 0)
(-0.00409013 0.00898276 0)
(-0.0100512 0.0130987 0)
(-0.0171553 0.0150878 0)
(-0.0245812 0.0153235 0)
(-0.0316669 0.0142821 0)
(-0.0379612 0.0123321 0)
(-0.0431354 0.00971513 0)
(-0.046943 0.00658453 0)
(-0.0491908 0.00305262 0)
(-0.0497299 -0.000768829 0)
(-0.0484618 -0.00473621 0)
(-0.0453561 -0.00864753 0)
(-0.0404816 -0.0122193 0)
(-0.0340469 -0.0150701 0)
(-0.0264491 -0.0167178 0)
(-0.0183133 -0.0166094 0)
(-0.0105421 -0.0142275 0)
(-0.00413321 -0.00938369 0)
(-0.000515443 -0.00381276 0)
(-0.000591644 0.00618532 0)
(-0.00492134 0.0143108 0)
(-0.0120224 0.0202368 0)
(-0.0203568 0.0229648 0)
(-0.0289863 0.0231422 0)
(-0.0371732 0.0214759 0)
(-0.0444314 0.0184983 0)
(-0.0504124 0.014556 0)
(-0.0548535 0.00986839 0)
(-0.0575425 0.00459475 0)
(-0.0583058 -0.00110846 0)
(-0.057013 -0.00703979 0)
(-0.0535984 -0.0129126 0)
(-0.0480979 -0.0183171 0)
(-0.040705 -0.0226935 0)
(-0.0318383 -0.0253246 0)
(-0.0222045 -0.025379 0)
(-0.0128748 -0.0220574 0)
(-0.00505708 -0.0149715 0)
(-0.000664778 -0.00622834 0)
(-0.000701086 0.00898941 0)
(-0.00570692 0.0205463 0)
(-0.0139104 0.0285028 0)
(-0.0234553 0.0320093 0)
(-0.0332786 0.032068 0)
(-0.0425666 0.0296692 0)
(-0.0508062 0.0255344 0)
(-0.0576388 0.020124 0)
(-0.0627936 0.0137215 0)
(-0.0660417 0.00652501 0)
(-0.0671784 -0.00127511 0)
(-0.0660265 -0.00942926 0)
(-0.0624596 -0.0175712 0)
(-0.056448 -0.0251569 0)
(-0.0481351 -0.0314187 0)
(-0.0379367 -0.0353474 0)
(-0.0266421 -0.0357461 0)
(-0.0155323 -0.0314285 0)
(-0.00609337 -0.021717 0)
(-0.000839685 -0.00912063 0)
(-0.0008163 0.0122172 0)
(-0.00657152 0.0277128 0)
(-0.0159701 0.0379433 0)
(-0.0268314 0.0422782 0)
(-0.0379516 0.042162 0)
(-0.0484397 0.038929 0)
(-0.0577629 0.0335214 0)
(-0.0655636 0.0265219 0)
(-0.0715718 0.0182731 0)
(-0.0755461 0.0089975 0)
(-0.0772462 -0.00110056 0)
(-0.0764337 -0.0117427 0)
(-0.0728935 -0.0224998 0)
(-0.0664884 -0.0326921 0)
(-0.0572628 -0.0413124 0)
(-0.0455869 -0.0469837 0)
(-0.0323178 -0.0480181 0)
(-0.0189894 -0.0426855 0)
(-0.00746304 -0.0298911 0)
(-0.00107656 -0.0125998 0)
(-0.00095088 0.0159442 0)
(-0.00760881 0.0359368 0)
(-0.0183908 0.048709 0)
(-0.0307567 0.0539183 0)
(-0.0433388 0.0535583 0)
(-0.0551688 0.0493812 0)
(-0.0657069 0.042587 0)
(-0.0746129 0.0338913 0)
(-0.0816332 0.0236876 0)
(-0.0865252 0.0122022 0)
(-0.0890134 -0.000377722 0)
(-0.0887888 -0.0137758 0)
(-0.085521 -0.0275348 0)
(-0.0789126 -0.0408522 0)
(-0.0688393 -0.0524558 0)
(-0.0555482 -0.0605104 0)
(-0.0399126 -0.0626642 0)
(-0.0237443 -0.0564037 0)
(-0.00940697 -0.0399994 0)
(-0.00141848 -0.0168902 0)
(-0.00111679 0.0202923 0)
(-0.00889732 0.0454223 0)
(-0.0213204 0.0610219 0)
(-0.0354246 0.0671265 0)
(-0.0496501 0.0664186 0)
(-0.0629549 0.0611612 0)
(-0.0748144 0.0528582 0)
(-0.0849315 0.0423699 0)
(-0.0930954 0.0301311 0)
(-0.0990851 0.016346 0)
(-0.1026 0.00114785 0)
(-0.103264 -0.0152578 0)
(-0.100611 -0.0324235 0)
(-0.0941263 -0.0494687 0)
(-0.083423 -0.0648555 0)
(-0.0685013 -0.0762003 0)
(-0.0501315 -0.0802636 0)
(-0.0303729 -0.0733863 0)
(-0.0122316 -0.0528143 0)
(-0.00191994 -0.0223508 0)
(-0.00132715 0.0254289 0)
(-0.0105192 0.0564345 0)
(-0.0248911 0.0751473 0)
(-0.0409781 0.0821095 0)
(-0.056995 0.0808826 0)
(-0.0718396 0.0743599 0)
(-0.0850371 0.0644046 0)
(-0.0963727 0.0520365 0)
(-0.105716 0.0377202 0)
(-0.112902 0.0216073 0)
(-0.117654 0.00372723 0)
(-0.119537 -0.0158556 0)
(-0.117934 -0.0367879 0)
(-0.112083 -0.0581981 0)
(-0.101223 -0.0783307 0)
(-0.0849304 -0.094196 0)
(-0.0636522 -0.101409 0)
(-0.0395439 -0.0946432 0)
(-0.0163536 -0.069431 0)
(-0.00265207 -0.0295246 0)
(-0.00160043 0.0315778 0)
(-0.0125791 0.0692945 0)
(-0.0292401 0.0913674 0)
(-0.0475197 0.0990379 0)
(-0.0653744 0.0970083 0)
(-0.0816726 0.0889537 0)
(-0.0960432 0.0771628 0)
(-0.108409 0.0628323 0)
(-0.118774 0.0464453 0)
(-0.127086 0.0280675 0)
(-0.133144 0.00756423 0)
(-0.136505 -0.0152028 0)
(-0.136442 -0.0401161 0)
(-0.131926 -0.0664542 0)
(-0.121733 -0.0923756 0)
(-0.104798 -0.114316 0)
(-0.0809024 -0.126517 0)
(-0.0519347 -0.121298 0)
(-0.0223253 -0.0913221 0)
(-0.00370571 -0.0392156 0)
(-0.0019675 0.0390437 0)
(-0.0152249 0.0843808 0)
(-0.0345197 0.109945 0)
(-0.0550905 0.117978 0)
(-0.0746169 0.114681 0)
(-0.092002 0.104701 0)
(-0.107061 0.0908259 0)
(-0.119931 0.0744464 0)
(-0.130822 0.056055 0)
(-0.139869 0.0356028 0)
(-0.147013 0.0127381 0)
(-0.151902 -0.0129793 0)
(-0.153789 -0.0418013 0)
(-0.151432 -0.0733683 0)
(-0.143114 -0.106005 0)
(-0.126932 -0.135776 0)
(-0.10156 -0.155475 0)
(-0.0679534 -0.15432 0)
(-0.0308039 -0.120319 0)
(-0.00518987 -0.0525873 0)
(-0.00248475 0.0482554 0)
(-0.0186756 0.102127 0)
(-0.040889 0.131054 0)
(-0.0635926 0.138769 0)
(-0.084217 0.133464 0)
(-0.101832 0.120982 0)
(-0.116572 0.104681 0)
(-0.128889 0.0861568 0)
(-0.139288 0.0658991 0)
(-0.148168 0.0437207 0)
(-0.155716 0.0190116 0)
(-0.161777 -0.00906109 0)
(-0.165732 -0.0412479 0)
(-0.166295 -0.0778102 0)
(-0.161363 -0.117618 0)
(-0.148121 -0.156826 0)
(-0.123689 -0.187067 0)
(-0.0871316 -0.19393 0)
(-0.0423805 -0.158369 0)
(-0.00722233 -0.0712552 0)
(-0.00325942 0.0598362 0)
(-0.0232594 0.123 0)
(-0.048464 0.154629 0)
(-0.0725863 0.160792 0)
(-0.0929715 0.152338 0)
(-0.109128 0.136545 0)
(-0.121726 0.117386 0)
(-0.131673 0.096639 0)
(-0.139854 0.0747618 0)
(-0.147007 0.051406 0)
(-0.153642 0.0256811 0)
(-0.159919 -0.00367956 0)
(-0.165534 -0.03803 0)
(-0.169438 -0.078493 0)
(-0.169443 -0.124948 0)
(-0.162025 -0.174396 0)
(-0.142535 -0.218194 0)
(-0.107062 -0.238526 0)
(-0.0571055 -0.206796 0)
(-0.00990078 -0.097293 0)
(-0.00449588 0.0747218 0)
(-0.0294594 0.147426 0)
(-0.0571463 0.180033 0)
(-0.0807927 0.182518 0)
(-0.0981831 0.169252 0)
(-0.109827 0.149136 0)
(-0.117281 0.126698 0)
(-0.12207 0.10379 0)
(-0.125516 0.0807555 0)
(-0.128703 0.0570482 0)
(-0.132477 0.031506 0)
(-0.13737 0.00247284 0)
(-0.143564 -0.0320756 0)
(-0.150586 -0.0741884 0)
(-0.156689 -0.125197 0)
(-0.15826 -0.18392 0)
(-0.149201 -0.243069 0)
(-0.121865 -0.283112 0)
(-0.0734077 -0.264666 0)
(-0.0131952 -0.132955 0)
(-0.00651593 0.0944085 0)
(-0.0378741 0.175572 0)
(-0.0660728 0.205315 0)
(-0.0848149 0.200632 0)
(-0.0938766 0.18041 0)
(-0.0958764 0.155046 0)
(-0.09371 0.129269 0)
(-0.0895966 0.104707 0)
(-0.0852064 0.0814081 0)
(-0.0818204 0.0585603 0)
(-0.0804752 0.0347754 0)
(-0.0820569 0.00814608 0)
(-0.0872411 -0.0238649 0)
(-0.0963684 -0.0640996 0)
(-0.108855 -0.115519 0)
(-0.122065 -0.179675 0)
(-0.129653 -0.252875 0)
(-0.120428 -0.31764 0)
(-0.0859921 -0.326073 0)
(-0.016515 -0.179793 0)
(-0.00982341 0.121821 0)
(-0.0486992 0.206823 0)
(-0.0714675 0.225373 0)
(-0.0754175 0.208359 0)
(-0.0666068 0.179321 0)
(-0.0513694 0.148815 0)
(-0.0339843 0.120802 0)
(-0.0169929 0.096091 0)
(-0.00195966 0.0741531 0)
(0.0100526 0.0538597 0)
(0.0181652 0.0336938 0)
(0.0213976 0.011731 0)
(0.0187322 -0.0145684 0)
(0.00896785 -0.0484462 0)
(-0.00902007 -0.0940921 0)
(-0.0349404 -0.156111 0)
(-0.0645397 -0.236659 0)
(-0.08495 -0.32627 0)
(-0.0827197 -0.377029 0)
(-0.0173589 -0.236949 0)
(-0.0155286 0.164795 0)
(-0.058223 0.238304 0)
(-0.0569067 0.228974 0)
(-0.0257784 0.194277 0)
(0.0144743 0.157275 0)
(0.054775 0.124708 0)
(0.0914316 0.097776 0)
(0.122992 0.0758427 0)
(0.14901 0.057702 0)
(0.169325 0.041995 0)
(0.183693 0.0272832 0)
(0.191484 0.0119536 0)
(0.191627 -0.00596703 0)
(0.182286 -0.0292862 0)
(0.160669 -0.0621831 0)
(0.123714 -0.111187 0)
(0.0701358 -0.185175 0)
(0.00983551 -0.28913 0)
(-0.0424415 -0.392915 0)
(-0.00774759 -0.298227 0)
(-0.0193163 0.218189 0)
(-0.0310092 0.242779 0)
(0.0497295 0.181729 0)
(0.139067 0.136206 0)
(0.216123 0.101623 0)
(0.279153 0.0756298 0)
(0.329526 0.056332 0)
(0.369209 0.0419597 0)
(0.399915 0.0310017 0)
(0.422884 0.0222258 0)
(0.43877 0.0145895 0)
(0.447525 0.00710725 0)
(0.4483 -0.00123625 0)
(0.439136 -0.0120194 0)
(0.416363 -0.0277475 0)
(0.374141 -0.053702 0)
(0.303372 -0.102306 0)
(0.200938 -0.197172 0)
(0.0626525 -0.343364 0)
(0.0408176 -0.313723 0)
(0.246331 0.110794 0)
(0.323137 0.102925 0)
(0.458801 0.0653898 0)
(0.560871 0.044288 0)
(0.63005 0.0314763 0)
(0.67899 0.0228962 0)
(0.714346 0.0169532 0)
(0.740114 0.0127418 0)
(0.758899 0.00967803 0)
(0.772376 0.00737191 0)
(0.781532 0.00554517 0)
(0.786795 0.00398192 0)
(0.788009 0.00249885 0)
(0.784358 0.000872429 0)
(0.773839 -0.00125931 0)
(0.752596 -0.00434279 0)
(0.709992 -0.010892 0)
(0.630598 -0.0242577 0)
(0.464013 -0.0709054 0)
(0.308766 -0.118852 0)
)
;

boundaryField
{
    movingWall
    {
        type            calculated;
        value           uniform (1 0 0);
    }
    fixedWalls
    {
        type            calculated;
        value           uniform (0 0 0);
    }
    frontAndBack
    {
        type            empty;
    }
}


// ************************************************************************* //
