/*--------------------------------*- C++ -*----------------------------------*\
  =========                 |
  \\      /  F ield         | OpenFOAM: The Open Source CFD Toolbox
   \\    /   O peration     | Website:  https://openfoam.org
    \\  /    A nd           | Version:  13
     \\/     M anipulation  |
\*---------------------------------------------------------------------------*/
FoamFile
{
    format      ascii;
    class       volScalarField;
    location    "2";
    object      p;
}
// * * * * * * * * * * * * * * * * * * * * * * * * * * * * * * * * * * * * * //

dimensions      [0 2 -2 0 0 0 0];

internalField   nonuniform List<scalar> 
400
(
-4.76865e-10
-0.000133113
3.22728e-05
0.000591148
0.00155408
0.00289201
0.00455937
0.00650013
0.00865005
0.0109381
0.0132877
0.0156187
0.0178485
0.019895
0.0216795
0.0231301
0.0241866
0.0248103
0.0250097
0.0248913
0.000119251
-2.31069e-05
0.00017707
0.000748115
0.00170304
0.00301963
0.0046575
0.00656411
0.00867753
0.0109284
0.0132415
0.0155376
0.0177354
0.019754
0.0215163
0.0229532
0.0240092
0.0246516
0.0248904
0.0247665
-5.06549e-05
-0.000256372
-6.07041e-05
0.000520145
0.00149107
0.00282766
0.00448938
0.00642394
0.00856954
0.0108566
0.0132096
0.0155483
0.0177901
0.0198526
0.0216568
0.0231314
0.0242184
0.0248809
0.0251204
0.0249366
-0.000632145
-0.000892381
-0.000702028
-9.93142e-05
0.000914958
0.00231211
0.00404886
0.00607095
0.00831487
0.0107093
0.0131764
0.0156333
0.0179942
0.020172
0.0220824
0.0236481
0.0248039
0.0255059
0.0257488
0.0255145
-0.00168433
-0.00199204
-0.00179832
-0.00115395
-6.3296e-05
0.00143984
0.00330755
0.00548168
0.00789523
0.0104734
0.0131348
0.015792
0.0183534
0.0207249
0.0228135
0.0245314
0.0258027
0.0265733
0.0268331
0.0265559
-0.00325492
-0.00361004
-0.00340129
-0.00269027
-0.00148488
0.000174565
0.00223373
0.00462875
0.00728757
0.0101307
0.0130716
0.016017
0.0188678
0.0215201
0.0238685
0.0258105
0.0272546
0.0281326
0.0284277
0.0281087
-0.0054055
-0.00581354
-0.00557649
-0.00476899
-0.00340441
-0.00153207
0.000784942
0.00347519
0.00646023
0.00965484
0.0129667
0.0162959
0.0195343
0.0225662
0.02527
0.0275234
0.0292125
0.0302483
0.0306026
0.0302386
-0.00822067
-0.00869117
-0.00841001
-0.00746983
-0.00589342
-0.00374318
-0.00109408
0.00197281
0.0053715
0.00901062
0.0127921
0.0166095
0.0203454
0.0238706
0.027044
0.0297173
0.031745
0.0330066
0.0334534
0.0330392
-0.0118154
-0.0123608
-0.0120147
-0.0108957
-0.00904293
-0.00653803
-0.00347211
6.17608e-05
0.00396912
0.00815272
0.0125099
0.0169291
0.0212851
0.0254353
0.0292165
0.0324473
0.0349388
0.036522
0.0371114
0.0366432
-0.0163451
-0.0169793
-0.0165377
-0.0151777
-0.0129661
-0.0100128
-0.00643102
-0.00232849
0.00219118
0.007026
0.0120713
0.0172141
0.0223255
0.0272521
0.0318087
0.0357743
0.038901
0.0409465
0.0417586
0.0412403
-0.022022
-0.0227572
-0.0221716
-0.0204815
-0.0178002
-0.0142799
-0.010063
-0.00527545
-3.0179e-05
0.00556837
0.0114181
0.0174111
0.0234226
0.0292965
0.0348301
0.0397598
0.0437609
0.0464811
0.0476511
0.0471078
-0.0291419
-0.0299802
-0.0291678
-0.0270127
-0.0237064
-0.0194625
-0.0144626
-0.00885437
-0.00275952
0.00371879
0.0104881
0.0174559
0.0245148
0.0315217
0.0382697
0.0444581
0.0496703
0.0533941
0.0551566
0.0546669
-0.0381309
-0.0390427
-0.0378551
-0.0350214
-0.0308627
-0.0256813
-0.0197093
-0.0131192
-0.0060397
0.00143376
0.00922871
0.0172831
0.0255272
0.0338557
0.042087
0.0499062
0.0568021
0.0620442
0.0648158
0.0645843
-0.0496284
-0.0504971
-0.0486578
-0.0447939
-0.0394396
-0.0330207
-0.025831
-0.0180676
-0.00985964
-0.00128404
0.00762191
0.0168466
0.0263849
0.0362074
0.0462072
0.0561105
0.0653443
0.07291
0.0774363
0.0779579
-0.0646375
-0.0651216
-0.0620977
-0.0566096
-0.0495345
-0.041458
-0.0327373
-0.0235824
-0.0141055
-0.00434446
0.00572004
0.0161514
0.0270414
0.0384848
0.0505241
0.0630315
0.0754799
0.0866137
0.0942282
0.0966463
-0.0848098
-0.0839882
-0.0787233
-0.0705999
-0.0610161
-0.050724
-0.0401096
-0.0293507
-0.0185009
-0.00752419
0.00368449
0.0152898
0.0275127
0.0406236
0.0549086
0.0705543
0.0873216
0.103891
0.116958
0.12383
-0.113038
-0.108415
-0.0987892
-0.0863681
-0.0732016
-0.0600754
-0.047259
-0.0347819
-0.0225642
-0.0104448
0.0017983
0.0144523
0.027889
0.0425954
0.0591911
0.078397
0.1007
0.125334
0.147984
0.164923
-0.155869
-0.139736
-0.121376
-0.102201
-0.0843709
-0.0680642
-0.0530528
-0.0390126
-0.0256506
-0.0126306
0.000402126
0.0138585
0.0282603
0.0443249
0.063038
0.0858586
0.114611
0.150512
0.189808
0.229855
-0.229232
-0.176478
-0.141991
-0.113968
-0.0915588
-0.0726811
-0.0561542
-0.0411832
-0.0271971
-0.0137176
-0.000291105
0.0135795
0.0285193
0.0454079
0.0655893
0.091267
0.126033
0.17549
0.242139
0.339916
-0.397904
-0.222292
-0.154758
-0.118243
-0.0929756
-0.0730393
-0.0561628
-0.0411442
-0.0272301
-0.0138665
-0.000569282
0.0131715
0.027994
0.0448199
0.0651534
0.0917909
0.130411
0.195308
0.314508
0.567175
)
;

boundaryField
{
    movingWall
    {
        type            zeroGradient;
    }
    fixedWalls
    {
        type            zeroGradient;
    }
    frontAndBack
    {
        type            empty;
    }
}


// ************************************************************************* //
