/*--------------------------------*- C++ -*----------------------------------*\
  =========                 |
  \\      /  F ield         | OpenFOAM: The Open Source CFD Toolbox
   \\    /   O peration     | Website:  https://openfoam.org
    \\  /    A nd           | Version:  13
     \\/     M anipulation  |
\*---------------------------------------------------------------------------*/
FoamFile
{
    format      ascii;
    class       surfaceScalarField;
    location    "2";
    object      phi;
}
// * * * * * * * * * * * * * * * * * * * * * * * * * * * * * * * * * * * * * //

dimensions      [0 3 -1 0 0 0 0];

internalField   nonuniform List<scalar> 
760
(
-2.93946e-05
2.93947e-05
-9.2069e-05
6.26744e-05
-0.00017256
8.04904e-05
-0.00025418
8.16203e-05
-0.000329826
7.56464e-05
-0.000395735
6.59083e-05
-0.000449559
5.38237e-05
-0.000489659
4.0101e-05
-0.000514864
2.52048e-05
-0.000524386
9.52228e-06
-0.000517813
-6.57299e-06
-0.000495124
-2.26885e-05
-0.000456736
-3.83879e-05
-0.000403577
-5.31596e-05
-0.000337215
-6.63611e-05
-0.000260144
-7.70713e-05
-0.000176493
-8.36509e-05
-9.39296e-05
-8.25638e-05
-2.99125e-05
-6.40176e-05
-2.99129e-05
-6.24283e-05
9.18229e-05
-0.000194388
0.000194633
-0.000372385
0.000258488
-0.000559015
0.000268249
-0.000735272
0.000251904
-0.000890706
0.000221342
-0.00101883
0.000181949
-0.00111521
0.000136483
-0.00117669
8.66865e-05
-0.0012011
3.39325e-05
-0.00118719
-2.04859e-05
-0.00113468
-7.51947e-05
-0.00104446
-0.000128614
-0.000918808
-0.000178809
-0.000761927
-0.000223241
-0.00058081
-0.000258189
-0.000387173
-0.000277289
-0.000201848
-0.000267888
-6.41651e-05
-0.000201699
-9.40785e-05
-8.6531e-05
0.000178354
-0.000275718
0.00038382
-0.000506583
0.000489353
-0.000742521
0.000504188
-0.000963467
0.00047285
-0.00115747
0.000415345
-0.00131677
0.000341249
-0.00143602
0.000255736
-0.00151149
0.000162149
-0.00154066
6.31077e-05
-0.00152218
-3.8964e-05
-0.00145586
-0.00014152
-0.00134284
-0.000241625
-0.001186
-0.000335658
-0.000990402
-0.000418836
-0.000764346
-0.000484245
-0.000521106
-0.00052053
-0.000282709
-0.000506285
-8.80445e-05
-0.000396362
-0.000182122
-9.91681e-05
0.000277522
-0.00032185
0.000606502
-0.000587643
0.000755146
-0.00085624
0.000772785
-0.00110624
0.000722848
-0.00132495
0.000634058
-0.00150415
0.000520445
-0.00163818
0.000389765
-0.0017231
0.00024707
-0.00175626
9.62738e-05
-0.00173616
-5.90658e-05
-0.00166245
-0.000215234
-0.00153615
-0.000367918
-0.0013601
-0.00051171
-0.00113956
-0.000639382
-0.000883305
-0.000740496
-0.000605624
-0.000798212
-0.000330399
-0.000781511
-0.000101005
-0.000625756
-0.000283127
-0.000110474
0.000387996
-0.000361549
0.000857578
-0.000659611
0.00105321
-0.000959064
0.00107224
-0.00123639
0.00100017
-0.00147811
0.000875777
-0.00167576
0.000718091
-0.00182367
0.000537674
-0.00191792
0.000341326
-0.00195583
0.00013418
-0.00193568
-7.92147e-05
-0.00185677
-0.000294137
-0.00171968
-0.000505013
-0.00152674
-0.000704647
-0.00128297
-0.000883162
-0.000997382
-0.00102608
-0.000685476
-0.00111012
-0.000374129
-0.00109286
-0.000113219
-0.000886665
-0.000396347
-0.000124018
0.000512013
-0.000407126
0.00114069
-0.000742204
0.00138829
-0.00107719
0.00140723
-0.00138581
0.00130879
-0.00165362
0.00114359
-0.00187207
0.00093654
-0.00203573
0.000701333
-0.00214093
0.000446527
-0.00218504
0.000178289
-0.00216612
-9.81329e-05
-0.00208291
-0.000377345
-0.00193513
-0.000652794
-0.00172417
-0.000915609
-0.00145429
-0.00115305
-0.00113451
-0.00134587
-0.000781778
-0.00146284
-0.000427013
-0.00144762
-0.000128434
-0.00118524
-0.000524781
-0.000141566
0.000653579
-0.000464915
0.00146404
-0.000845866
0.00176924
-0.00122433
0.00178569
-0.00157064
0.0016551
-0.00186942
0.00144236
-0.00211228
0.0011794
-0.00229442
0.000883473
-0.00241275
0.00056486
-0.00246491
0.000230451
-0.00244874
-0.000114304
-0.00236218
-0.000463906
-0.00220362
-0.000811352
-0.00197283
-0.0011464
-0.00167256
-0.00145331
-0.00131126
-0.00170716
-0.000907354
-0.00186675
-0.000496815
-0.00185816
-0.00014876
-0.0015333
-0.000673541
-0.000164494
0.000818073
-0.000539602
0.00183915
-0.00097824
0.00220787
-0.0014101
0.00221756
-0.00180156
0.00204656
-0.0021365
0.0017773
-0.00240734
0.00145024
-0.00261052
0.00108666
-0.00274411
0.000698452
-0.00280638
0.000292717
-0.00279502
-0.000125659
-0.00270696
-0.000551976
-0.00253863
-0.000979675
-0.00228719
-0.00139784
-0.00195267
-0.00178784
-0.00154173
-0.00211811
-0.00107372
-0.00233475
-0.000590691
-0.0023412
-0.000176198
-0.00194779
-0.000849738
-0.000194452
0.00101253
-0.000636284
0.00228098
-0.0011472
0.00271879
-0.00164376
0.00271412
-0.00208791
0.00249071
-0.00246347
0.00215286
-0.00276472
0.00175149
-0.00299045
0.00131239
-0.00314076
0.000848758
-0.00321513
0.000367092
-0.00321139
-0.000129396
-0.00312522
-0.000638152
-0.00295038
-0.00115451
-0.00268003
-0.0016682
-0.0023095
-0.00215837
-0.0018415
-0.0025861
-0.00129474
-0.00288152
-0.000717819
-0.00291811
-0.000213476
-0.00245213
-0.00106321
-0.000233817
0.00124634
-0.000761756
0.00280892
-0.00136251
0.00331954
-0.00193584
0.00328744
-0.00243914
0.00299402
-0.00285764
0.00257136
-0.00318927
0.00208312
-0.00343682
0.00155994
-0.00360374
0.00101568
-0.0036917
0.000455047
-0.0036991
-0.000121995
-0.00362032
-0.000716929
-0.00344567
-0.00132916
-0.00316256
-0.00195131
-0.00275878
-0.00256215
-0.00222936
-0.00311553
-0.00158881
-0.00352206
-0.000891458
-0.00361547
-0.000264808
-0.00307878
-0.00132802
-0.000286239
0.00153258
-0.000925665
0.00344834
-0.00163699
0.00403087
-0.00229867
0.00394912
-0.00286452
0.00355987
-0.0033239
0.00303075
-0.00368128
0.0024405
-0.00394589
0.00182455
-0.00412638
0.00119617
-0.0042279
0.000556566
-0.00425028
-9.96201e-05
-0.00418682
-0.000780382
-0.00402377
-0.00149222
-0.00374086
-0.00223422
-0.0033146
-0.00298841
-0.0027265
-0.00370363
-0.00198007
-0.00426848
-0.00113099
-0.00446455
-0.000336891
-0.00387288
-0.00166491
-0.000357466
0.00189005
-0.00114175
0.00423263
-0.00198684
0.00487596
-0.00274518
0.00470745
-0.00337013
0.00418481
-0.00386016
0.00352077
-0.00423072
0.00281106
-0.00450081
0.00209464
-0.00468667
0.00138203
-0.00479862
0.000668514
-0.00483909
-5.9147e-05
-0.00480106
-0.000818413
-0.00466663
-0.00162665
-0.00440637
-0.00249448
-0.00398129
-0.0034135
-0.00335125
-0.00433367
-0.0024968
-0.00512293
-0.00146349
-0.00549786
-0.000440379
-0.00489599
-0.00210529
-0.000456662
0.00234671
-0.0014289
0.00520487
-0.00243026
0.00587732
-0.00328386
0.00556105
-0.00395045
0.0048514
-0.00444621
0.00401654
-0.00480411
0.00316896
-0.00505718
0.00234771
-0.00523192
0.00155678
-0.00534559
0.000782181
-0.00540462
-1.14864e-07
-0.00540298
-0.000820054
-0.00531975
-0.00170989
-0.00511626
-0.00269796
-0.00473477
-0.00379499
-0.00410398
-0.00496446
-0.00316302
-0.00606389
-0.00192278
-0.0067381
-0.000591913
-0.00622685
-0.0026972
-0.000598374
0.00294508
-0.00181058
0.00641708
-0.00298023
0.00704697
-0.00390385
0.00648467
-0.00456695
0.00551451
-0.00501794
0.00446752
-0.0053162
0.00346723
-0.00551345
0.00254496
-0.00564853
0.00169185
-0.00574661
0.000880259
-0.00581919
7.24642e-05
-0.00586303
-0.000776206
-0.00585699
-0.00171593
-0.00575617
-0.00279878
-0.0054847
-0.00406645
-0.00493261
-0.00551655
-0.00397377
-0.00702274
-0.00253992
-0.00817195
-0.000816224
-0.00795055
-0.00351343
-0.000804776
0.00374986
-0.00230846
0.00792076
-0.00362133
0.00835984
-0.00453506
0.00739839
-0.00509678
0.00607623
-0.00540995
0.00478069
-0.00557066
0.00362793
-0.00565181
0.00262611
-0.00570378
0.00174383
-0.00575817
0.000934649
-0.00583105
0.000145339
-0.00592369
-0.000683557
-0.0060194
-0.00162022
-0.00607483
-0.00274336
-0.00600498
-0.0041363
-0.00566354
-0.005858
-0.00483766
-0.00784862
-0.00331215
-0.00969745
-0.00114541
-0.0101173
-0.00465884
-0.00110583
0.00485569
-0.00291632
0.00973125
-0.00424054
0.00968407
-0.00494522
0.00810307
-0.00521334
0.00634435
-0.00523307
0.00480042
-0.00514111
0.00353597
-0.00502477
0.00250978
-0.00493785
0.0016569
-0.0049116
0.0009084
-0.00496311
0.000196856
-0.00509884
-0.000547827
-0.00531258
-0.00140649
-0.0055757
-0.00248024
-0.00581644
-0.00389556
-0.0058772
-0.00579723
-0.00546074
-0.00826507
-0.00412568
-0.0110325
-0.00160442
-0.0126386
-0.00626326
-0.00153259
0.00638828
-0.00350187
0.0117005
-0.00441941
0.0106016
-0.00447922
0.00816288
-0.00412294
0.00598807
-0.00363028
0.00430776
-0.00314988
0.00305557
-0.00275233
0.00211223
-0.00247458
0.00137915
-0.00233361
0.000767431
-0.00234033
0.000203574
-0.0025054
-0.000382756
-0.00283951
-0.00107238
-0.00334475
-0.001975
-0.0040009
-0.00323941
-0.00470187
-0.00509627
-0.0051346
-0.00783234
-0.00459353
-0.0115736
-0.00215319
-0.0150789
-0.00841645
-0.00212328
0.00851155
-0.00348433
0.0130616
-0.00282893
0.00994621
-0.00144525
0.0067792
-4.11479e-05
0.00458397
0.00116812
0.00309849
0.00212649
0.0020972
0.00282992
0.0014088
0.00330299
0.000906073
0.00356158
0.00050885
0.00360883
0.00015632
0.00343121
-0.000205136
0.00299409
-0.000635264
0.00223551
-0.00121641
0.00109171
-0.00209561
-0.00048253
-0.00352203
-0.00236831
-0.00594656
-0.00376661
-0.0101753
-0.00259278
-0.0162527
-0.0110092
-0.00274565
0.0112572
0.000346065
0.00996987
0.00475026
0.00554201
0.00806956
0.00345991
0.0104858
0.0021677
0.0122213
0.00136298
0.0134525
0.000866039
0.0143064
0.000554888
0.0148625
0.000349983
0.015168
0.000203357
0.0152394
8.49322e-05
0.0150612
-2.69695e-05
0.0145791
-0.000153129
0.0136852
-0.000322578
0.0121821
-0.00059245
0.00975932
-0.00109926
0.00600427
-0.00219151
0.000766765
-0.00493778
-0.00303495
-0.012451
-0.0140442
0.0112572
0.0212271
0.0267691
0.030229
0.0323967
0.0337597
0.0346257
0.0351806
0.0355306
0.0357339
0.0358189
0.0357919
0.0356388
0.0353162
0.0347237
0.0336245
0.031433
0.0264952
0.0140442
)
;

boundaryField
{
    movingWall
    {
        type            calculated;
        value           uniform 0;
    }
    fixedWalls
    {
        type            calculated;
        value           uniform 0;
    }
    frontAndBack
    {
        type            empty;
    }
}


// ************************************************************************* //
