/*--------------------------------*- C++ -*----------------------------------*\
  =========                 |
  \\      /  F ield         | OpenFOAM: The Open Source CFD Toolbox
   \\    /   O peration     | Website:  https://openfoam.org
    \\  /    A nd           | Version:  13
     \\/     M anipulation  |
\*---------------------------------------------------------------------------*/
FoamFile
{
    format      ascii;
    class       volVectorField;
    location    "2";
    object      U;
}
// * * * * * * * * * * * * * * * * * * * * * * * * * * * * * * * * * * * * * //

dimensions      [0 1 -1 0 0 0 0];

internalField   nonuniform List<vector> 
400
(
(-0.000278647 0.000273307 0)
(-0.00117624 0.000737368 0)
(-0.00270316 0.000913526 0)
(-0.00434286 0.000930793 0)
(-0.00592278 0.000866792 0)
(-0.00733892 0.000753977 0)
(-0.00853344 0.00061029 0)
(-0.00946823 0.00044604 0)
(-0.0101161 0.000268133 0)
(-0.0104583 8.20419e-05 0)
(-0.0104835 -0.000107288 0)
(-0.0101879 -0.00029494 0)
(-0.00957591 -0.000475634 0)
(-0.00866104 -0.000643227 0)
(-0.00746783 -0.000789845 0)
(-0.00603523 -0.000903997 0)
(-0.00442573 -0.000966508 0)
(-0.00275159 -0.000943817 0)
(-0.0011994 -0.000757084 0)
(-0.00028069 -0.000278705 0)
(-0.000776648 0.00115836 0)
(-0.00230007 0.00228594 0)
(-0.00584362 0.00304201 0)
(-0.00954256 0.00314422 0)
(-0.0131882 0.00294623 0)
(-0.0165009 0.0025874 0)
(-0.0193209 0.00212871 0)
(-0.0215454 0.00160067 0)
(-0.0231023 0.00102262 0)
(-0.0239412 0.000410068 0)
(-0.0240304 -0.00022209 0)
(-0.0233568 -0.000857939 0)
(-0.0219277 -0.00147923 0)
(-0.0197751 -0.00206386 0)
(-0.016962 -0.00258315 0)
(-0.0135942 -0.00299543 0)
(-0.00984753 -0.00322838 0)
(-0.00602936 -0.00313373 0)
(-0.00239964 -0.00235305 0)
(-0.000773989 -0.00118288 0)
(-0.00104451 0.00272417 0)
(-0.00327209 0.00584519 0)
(-0.0080108 0.00749736 0)
(-0.0127519 0.00772491 0)
(-0.0173552 0.00723794 0)
(-0.0215133 0.00634977 0)
(-0.0250389 0.00520817 0)
(-0.0278082 0.00389235 0)
(-0.0297351 0.00245374 0)
(-0.0307607 0.000933043 0)
(-0.0308493 -0.000631878 0)
(-0.0299877 -0.00220141 0)
(-0.0281872 -0.00373043 0)
(-0.0254877 -0.00516409 0)
(-0.0219666 -0.00643063 0)
(-0.0177506 -0.00742633 0)
(-0.0130441 -0.00797838 0)
(-0.00818382 -0.00775395 0)
(-0.00336812 -0.00603457 0)
(-0.00103632 -0.0027819 0)
(-0.00121639 0.00458308 0)
(-0.00380048 0.00996168 0)
(-0.00930771 0.0124544 0)
(-0.0147367 0.0127535 0)
(-0.019967 0.0119257 0)
(-0.0246693 0.0104522 0)
(-0.0286441 0.00856653 0)
(-0.0317606 0.00639766 0)
(-0.0339283 0.00403013 0)
(-0.0350853 0.0015303 0)
(-0.0351937 -0.00104101 0)
(-0.0342378 -0.00362058 0)
(-0.0322261 -0.00613607 0)
(-0.0291975 -0.00849837 0)
(-0.0252304 -0.01059 0)
(-0.0204584 -0.0122415 0)
(-0.0151005 -0.0131776 0)
(-0.00952237 -0.012883 0)
(-0.00391773 -0.010274 0)
(-0.00120689 -0.00467454 0)
(-0.00137516 0.0066709 0)
(-0.00425649 0.0146646 0)
(-0.0104571 0.018052 0)
(-0.016529 0.0183893 0)
(-0.0223485 0.0171529 0)
(-0.0275574 0.0150105 0)
(-0.0319466 0.0122901 0)
(-0.0353836 0.0091742 0)
(-0.0377788 0.00578211 0)
(-0.0390713 0.00220571 0)
(-0.0392212 -0.00147243 0)
(-0.0382078 -0.00516702 0)
(-0.0360323 -0.00877927 0)
(-0.0327241 -0.0121848 0)
(-0.0283544 -0.0152162 0)
(-0.0230562 -0.0176306 0)
(-0.0170622 -0.0190354 0)
(-0.0107783 -0.0187082 0)
(-0.00442497 -0.0151416 0)
(-0.00136869 -0.00680791 0)
(-0.00155636 0.00900055 0)
(-0.00478791 0.0199502 0)
(-0.0117792 0.024319 0)
(-0.0185908 0.0246676 0)
(-0.0250855 0.0229472 0)
(-0.0308693 0.020043 0)
(-0.035724 0.0163909 0)
(-0.0395203 0.0122328 0)
(-0.0421747 0.00772349 0)
(-0.0436305 0.00297819 0)
(-0.0438472 -0.00190286 0)
(-0.042797 -0.00681687 0)
(-0.0404673 -0.0116423 0)
(-0.0368703 -0.0162202 0)
(-0.03206 -0.0203293 0)
(-0.026161 -0.0236409 0)
(-0.0194191 -0.0256223 0)
(-0.0122922 -0.0253021 0)
(-0.00504775 -0.0206752 0)
(-0.0015582 -0.00920756 0)
(-0.00178234 0.011636 0)
(-0.0054694 0.0259407 0)
(-0.0134446 0.0313951 0)
(-0.0211675 0.0317177 0)
(-0.0284812 0.0294152 0)
(-0.0349504 0.0256312 0)
(-0.0403518 0.0209293 0)
(-0.0445664 0.0156186 0)
(-0.047525 0.00988965 0)
(-0.0491808 0.00387636 0)
(-0.0494952 -0.00231069 0)
(-0.048431 -0.00855964 0)
(-0.0459552 -0.0147336 0)
(-0.0420509 -0.0206431 0)
(-0.0367409 -0.0260088 0)
(-0.030128 -0.0304005 0)
(-0.0224645 -0.0331114 0)
(-0.0142695 -0.0328628 0)
(-0.00587893 -0.0270549 0)
(-0.00179955 -0.0119551 0)
(-0.00207145 0.0146703 0)
(-0.00635747 0.0328316 0)
(-0.0155815 0.0394866 0)
(-0.024438 0.0397187 0)
(-0.0327446 0.0366963 0)
(-0.0400224 0.0318761 0)
(-0.0460527 0.0259764 0)
(-0.050741 0.0193825 0)
(-0.054045 0.0123198 0)
(-0.055938 0.00493332 0)
(-0.0563876 -0.00266787 0)
(-0.0553462 -0.0103769 0)
(-0.0527519 -0.0180549 0)
(-0.0485426 -0.0254907 0)
(-0.0426877 -0.0323461 0)
(-0.035244 -0.0380706 0)
(-0.0264524 -0.0417377 0)
(-0.0168965 -0.0416781 0)
(-0.00700663 -0.0345616 0)
(-0.00211405 -0.0151701 0)
(-0.00244439 0.0182249 0)
(-0.00751665 0.0408813 0)
(-0.0183273 0.0488529 0)
(-0.0285823 0.0488806 0)
(-0.0380692 0.0449393 0)
(-0.0462698 0.0388736 0)
(-0.0529898 0.0315901 0)
(-0.0581829 0.0235614 0)
(-0.0618546 0.0150443 0)
(-0.0640134 0.00618234 0)
(-0.064642 -0.00293511 0)
(-0.0636826 -0.0122277 0)
(-0.0610347 -0.021577 0)
(-0.0565702 -0.0307681 0)
(-0.0501722 -0.0394107 0)
(-0.0418096 -0.0468159 0)
(-0.0316743 -0.0517789 0)
(-0.0204024 -0.052122 0)
(-0.0085484 -0.0435847 0)
(-0.00252682 -0.0190169 0)
(-0.0029294 0.0224601 0)
(-0.00903709 0.050423 0)
(-0.0218602 0.059809 0)
(-0.033817 0.0594344 0)
(-0.0446657 0.0542836 0)
(-0.0538664 0.0466901 0)
(-0.0612864 0.0377922 0)
(-0.0669648 0.0281592 0)
(-0.0709866 0.0180709 0)
(-0.073418 0.00765019 0)
(-0.0742707 -0.00305986 0)
(-0.0734802 -0.0140371 0)
(-0.070899 -0.0252178 0)
(-0.0663074 -0.0364172 0)
(-0.0594566 -0.0472138 0)
(-0.0501627 -0.0567716 0)
(-0.0384963 -0.0635393 0)
(-0.025101 -0.0646661 0)
(-0.0106806 -0.0546612 0)
(-0.00307145 -0.0237254 0)
(-0.00356807 0.0275938 0)
(-0.0110536 0.0618904 0)
(-0.0264245 0.0727308 0)
(-0.040413 0.0716157 0)
(-0.0527627 0.0648288 0)
(-0.0629583 0.0553285 0)
(-0.070992 0.0445344 0)
(-0.0770462 0.0331176 0)
(-0.0813287 0.0213632 0)
(-0.0839951 0.00934438 0)
(-0.0851057 -0.00297869 0)
(-0.0845989 -0.0156854 0)
(-0.0822753 -0.0288176 0)
(-0.0777988 -0.0422748 0)
(-0.0707321 -0.0556532 0)
(-0.0606443 -0.0679865 0)
(-0.0473601 -0.0773114 0)
(-0.0314188 -0.0798868 0)
(-0.0136731 -0.0685376 0)
(-0.00379278 -0.0296298 0)
(-0.00442356 0.0339346 0)
(-0.0137717 0.0758532 0)
(-0.0323528 0.0880526 0)
(-0.0486894 0.0856275 0)
(-0.062564 0.0765795 0)
(-0.0735851 0.0646687 0)
(-0.0819759 0.0516451 0)
(-0.0881448 0.0382724 0)
(-0.0924793 0.0248075 0)
(-0.095262 0.0112312 0)
(-0.096628 -0.00262706 0)
(-0.0965353 -0.0170036 0)
(-0.0947381 -0.0321127 0)
(-0.0907676 -0.0480205 0)
(-0.0839419 -0.0644324 0)
(-0.0734616 -0.0803211 0)
(-0.0587091 -0.0932857 0)
(-0.0398895 -0.0984382 0)
(-0.0179291 -0.0862472 0)
(-0.00474533 -0.03723 0)
(-0.00559319 0.0419347 0)
(-0.0175042 0.0930569 0)
(-0.0400696 0.106235 0)
(-0.0589493 0.101553 0)
(-0.0741061 0.0893389 0)
(-0.0854744 0.0743664 0)
(-0.0936763 0.0587451 0)
(-0.0994565 0.0432887 0)
(-0.103447 0.0281653 0)
(-0.106094 0.0132023 0)
(-0.107635 -0.00196015 0)
(-0.108071 -0.0177777 0)
(-0.107133 -0.0347161 0)
(-0.104228 -0.0531186 0)
(-0.0983959 -0.0729475 0)
(-0.0883439 -0.0932795 0)
(-0.0727411 -0.11136 0)
(-0.0510411 -0.120932 0)
(-0.0240143 -0.109168 0)
(-0.00597819 -0.0472876 0)
(-0.00722583 0.0522775 0)
(-0.0227165 0.114441 0)
(-0.0500262 0.127649 0)
(-0.0712503 0.119161 0)
(-0.0868762 0.102505 0)
(-0.0975523 0.0836827 0)
(-0.104548 0.0651218 0)
(-0.109071 0.0475749 0)
(-0.11205 0.0310148 0)
(-0.114115 0.0150321 0)
(-0.115618 -0.000985551 0)
(-0.116629 -0.017771 0)
(-0.116897 -0.0361172 0)
(-0.115762 -0.0567684 0)
(-0.112019 -0.0801514 0)
(-0.103813 -0.105751 0)
(-0.0887955 -0.130775 0)
(-0.065016 -0.147594 0)
(-0.0326142 -0.138958 0)
(-0.0074807 -0.0609627 0)
(-0.00953722 0.0660151 0)
(-0.0300531 0.141053 0)
(-0.0624119 0.152236 0)
(-0.0847378 0.137468 0)
(-0.0988533 0.114691 0)
(-0.106826 0.0912167 0)
(-0.110885 0.0695668 0)
(-0.112789 0.0501925 0)
(-0.113752 0.0327003 0)
(-0.11455 0.016342 0)
(-0.115622 0.000200503 0)
(-0.117116 -0.0167642 0)
(-0.118863 -0.0357135 0)
(-0.120256 -0.0578936 0)
(-0.120006 -0.0844283 0)
(-0.115791 -0.11567 0)
(-0.10406 -0.149489 0)
(-0.0806045 -0.177492 0)
(-0.0442459 -0.177095 0)
(-0.00901619 -0.079974 0)
(-0.0127716 0.0847843 0)
(-0.0402376 0.173587 0)
(-0.0761603 0.178587 0)
(-0.0958011 0.153822 0)
(-0.104192 0.12309 0)
(-0.105935 0.0945674 0)
(-0.104409 0.0702446 0)
(-0.101815 0.0498301 0)
(-0.0994628 0.0323446 0)
(-0.098117 0.0166099 0)
(-0.0982013 0.00139754 0)
(-0.099914 -0.0146035 0)
(-0.103235 -0.032884 0)
(-0.107799 -0.0552052 0)
(-0.112571 -0.0835443 0)
(-0.115199 -0.119654 0)
(-0.111157 -0.163243 0)
(-0.0931815 -0.206977 0)
(-0.0583031 -0.223442 0)
(-0.00961492 -0.106685 0)
(-0.0168375 0.111915 0)
(-0.0534397 0.212095 0)
(-0.0855711 0.202109 0)
(-0.0930638 0.162365 0)
(-0.0878865 0.122777 0)
(-0.0781161 0.0902297 0)
(-0.0676963 0.0648519 0)
(-0.0585861 0.0450176 0)
(-0.0516776 0.0290352 0)
(-0.0473929 0.0152895 0)
(-0.0459432 0.00234022 0)
(-0.0475028 -0.0112478 0)
(-0.0522562 -0.0271231 0)
(-0.060302 -0.0474128 0)
(-0.0713908 -0.0748348 0)
(-0.0840818 -0.112891 0)
(-0.0940433 -0.164568 0)
(-0.0908631 -0.227295 0)
(-0.0705936 -0.273407 0)
(-0.00596083 -0.144354 0)
(-0.0192693 0.15066 0)
(-0.0679359 0.245781 0)
(-0.0694149 0.208464 0)
(-0.0447741 0.151748 0)
(-0.0147456 0.106872 0)
(0.011849 0.0744321 0)
(0.0333797 0.0514489 0)
(0.0498052 0.0348712 0)
(0.0615037 0.0223417 0)
(0.0687811 0.0121121 0)
(0.0718756 0.00280225 0)
(0.0707204 -0.00686193 0)
(0.0648753 -0.0183347 0)
(0.0536149 -0.0336165 0)
(0.0357914 -0.0557739 0)
(0.0103965 -0.0896235 0)
(-0.0213648 -0.142022 0)
(-0.0481923 -0.220434 0)
(-0.069852 -0.309482 0)
(0.0125209 -0.195595 0)
(-0.0198263 0.218457 0)
(-0.0503527 0.263894 0)
(0.0542065 0.17094 0)
(0.130645 0.10988 0)
(0.188973 0.0708812 0)
(0.229853 0.0460813 0)
(0.258907 0.0302926 0)
(0.279268 0.0200176 0)
(0.293033 0.0129218 0)
(0.301473 0.00760049 0)
(0.305233 0.00309712 0)
(0.304355 -0.00135436 0)
(0.298203 -0.00656417 0)
(0.285266 -0.0136869 0)
(0.262675 -0.0249531 0)
(0.225775 -0.044924 0)
(0.167157 -0.0834701 0)
(0.0907164 -0.165165 0)
(-0.0347209 -0.324798 0)
(0.0656369 -0.265845 0)
(0.256828 0.10775 0)
(0.32632 0.10411 0)
(0.483576 0.0613998 0)
(0.575532 0.0401334 0)
(0.630479 0.0260275 0)
(0.664225 0.0168779 0)
(0.685472 0.0109932 0)
(0.69906 0.00716325 0)
(0.707756 0.0045825 0)
(0.7131 0.00274042 0)
(0.715904 0.00130725 0)
(0.716495 5.17364e-05 0)
(0.714804 -0.00122094 0)
(0.710294 -0.00273051 0)
(0.701615 -0.00482219 0)
(0.685812 -0.00816665 0)
(0.653964 -0.0143349 0)
(0.595367 -0.0234026 0)
(0.442798 -0.0661846 0)
(0.333903 -0.107263 0)
)
;

boundaryField
{
    movingWall
    {
        type            fixedValue;
        value           uniform (1 0 0);
    }
    fixedWalls
    {
        type            fixedValue;
        value           uniform (0 0 0);
    }
    frontAndBack
    {
        type            empty;
    }
}


// ************************************************************************* //
