/*--------------------------------*- C++ -*----------------------------------*\
  =========                 |
  \\      /  F ield         | OpenFOAM: The Open Source CFD Toolbox
   \\    /   O peration     | Website:  https://openfoam.org
    \\  /    A nd           | Version:  13
     \\/     M anipulation  |
\*---------------------------------------------------------------------------*/
FoamFile
{
    format      ascii;
    class       volVectorField;
    location    "2";
    object      U_0;
}
// * * * * * * * * * * * * * * * * * * * * * * * * * * * * * * * * * * * * * //

dimensions      [0 1 -1 0 0 0 0];

internalField   nonuniform List<vector> 8((-0.00553345 0.00651125 -3.27829e-15) (-0.00553345 -0.00651125 -0.0146225) (0.0393219 0.00651125 0.0130225) (0.0393219 -0.00651125 -0.0276451) (-0.00553345 0.00651125 3.27829e-15) (-0.00553345 -0.00651125 0.0146225) (0.0393219 0.00651125 -0.0130225) (0.0393219 -0.00651125 0.0276451));

boundaryField
{
    movingWall
    {
        type            calculated;
        value           uniform (1 0 0);
    }
    fixedWalls
    {
        type            calculated;
        value           uniform (0 0 0);
    }
    frontAndBack
    {
        type            empty;
    }
}


// ************************************************************************* //
